
     Program PWSCF v.7.0 starts on 21May2025 at 19: 4:47 

     This program is part of the open-source Quantum ESPRESSO suite
     for quantum simulation of materials; please cite
         "P. Giannozzi et al., J. Phys.:Condens. Matter 21 395502 (2009);
         "P. Giannozzi et al., J. Phys.:Condens. Matter 29 465901 (2017);
         "P. Giannozzi et al., J. Chem. Phys. 152 154105 (2020);
          URL http://www.quantum-espresso.org", 
     in publications or presentations arising from this work. More details at
     http://www.quantum-espresso.org/quote

     Serial version
     543 MiB available memory on the printing compute node when the environment starts

     Waiting for input...
     Reading input from standard input

     Current dimensions of program PWSCF are:
     Max number of different atomic species (ntypx) = 10
     Max number of k-points (npk) =  40000
     Max angular momentum in pseudopotentials (lmaxx) =  4
     file C.pbe-n-kjpaw_psl.1.0.0.UPF: wavefunction(s)  2S 2P renormalized

     G-vector sticks info
     --------------------
     sticks:   dense  smooth     PW     G-vecs:    dense   smooth      PW
     Sum        2869    1433    357               115313    40651    5041

     Using Slab Decomposition



     bravais-lattice index     =            1
     lattice parameter (alat)  =      15.0000  a.u.
     unit-cell volume          =    3375.0000 (a.u.)^3
     number of atoms/cell      =            2
     number of atomic types    =            2
     number of electrons       =        15.00
     number of Kohn-Sham states=           12
     kinetic-energy cutoff     =      20.0000  Ry
     charge density cutoff     =     160.0000  Ry
     scf convergence threshold =      1.0E-06
     mixing beta               =       0.5000
     number of iterations used =            8  plain     mixing
     Exchange-correlation= SLA  PW   PBX  PBC
                           (   1   4   3   4   0   0   0)

     celldm(1)=  15.000000  celldm(2)=   0.000000  celldm(3)=   0.000000
     celldm(4)=   0.000000  celldm(5)=   0.000000  celldm(6)=   0.000000

     crystal axes: (cart. coord. in units of alat)
               a(1) = (   1.000000   0.000000   0.000000 )  
               a(2) = (   0.000000   1.000000   0.000000 )  
               a(3) = (   0.000000   0.000000   1.000000 )  

     reciprocal axes: (cart. coord. in units 2 pi/alat)
               b(1) = (  1.000000  0.000000  0.000000 )  
               b(2) = (  0.000000  1.000000  0.000000 )  
               b(3) = (  0.000000  0.000000  1.000000 )  


     PseudoPot. # 1 for Cu read from file:
     ../../QE/q-e/pseudo/Cu.pbe-kjpaw.UPF
     MD5 check sum: fe769b0ab65dca5f3352e2411ad4c6f8
     Pseudo is Projector augmented-wave + core cor, Zval = 11.0
     Generated using "atomic" code by A. Dal Corso (espresso distribution)
     Shape of augmentation charge: BESSEL
     Using radial grid of 1199 points,  6 beta functions with: 
                l(1) =   2
                l(2) =   2
                l(3) =   0
                l(4) =   0
                l(5) =   1
                l(6) =   1
     Q(r) pseudized with 0 coefficients 


     PseudoPot. # 2 for C  read from file:
     ../../QE/q-e/pseudo/C.pbe-n-kjpaw_psl.1.0.0.UPF
     MD5 check sum: 5f16ad9a65e90284d1d834d4ab3b0f7d
     Pseudo is Projector augmented-wave + core cor, Zval =  4.0
     Generated using &quot;atomic&quot; code by A. Dal Corso  v.6.3
     Shape of augmentation charge: PSQ
     Using radial grid of 1073 points,  4 beta functions with: 
                l(1) =   0
                l(2) =   0
                l(3) =   1
                l(4) =   1
     Q(r) pseudized with 0 coefficients 


     atomic species   valence    mass     pseudopotential
        Cu            11.00    63.54600     Cu( 1.00)
        C              4.00    12.01100     C ( 1.00)

      8 Sym. Ops. (no inversion) found



   Cartesian axes

     site n.     atom                  positions (alat units)
         1           C   tau(   1) = (   0.5000000   0.5000000   0.6118909  )
         2           Cu  tau(   2) = (   0.5000000   0.5000000   0.3881091  )

     number of k points=     1  Methfessel-Paxton smearing, width (Ry)=  0.0100
                       cart. coord. in units 2pi/alat
        k(    1) = (   0.0000000   0.0000000   0.0000000), wk =   2.0000000

     Dense  grid:   115313 G-vectors     FFT dimensions: (  64,  64,  64)

     Smooth grid:    40651 G-vectors     FFT dimensions: (  45,  45,  45)

     Estimated max dynamical RAM per process >     427.55 MB

     Check: negative core charge=   -0.000003

     Initial potential from superposition of free atoms

     starting charge      14.9997, renormalised to      15.0000

     negative rho (up, down):  5.856E-03 0.000E+00
     Starting wfcs are   13 randomized atomic wfcs

     total cpu time spent up to now is        1.9 secs

     Self-consistent Calculation

     iteration #  1     ecut=    20.00 Ry     beta= 0.50
     Davidson diagonalization with overlap
     ethr =  1.00E-02,  avg # of iterations =  2.0

     negative rho (up, down):  4.877E-03 0.000E+00

     total cpu time spent up to now is        3.7 secs

     total energy              =    -228.74450422 Ry
     estimated scf accuracy    <       2.57651748 Ry

     iteration #  2     ecut=    20.00 Ry     beta= 0.50
     Davidson diagonalization with overlap
     ethr =  1.00E-02,  avg # of iterations =  2.0

     negative rho (up, down):  7.613E-03 0.000E+00

     total cpu time spent up to now is        5.4 secs

     total energy              =    -230.75049738 Ry
     estimated scf accuracy    <       6.03569500 Ry

     iteration #  3     ecut=    20.00 Ry     beta= 0.50
     Davidson diagonalization with overlap
     ethr =  1.00E-02,  avg # of iterations =  2.0

     negative rho (up, down):  7.891E-03 0.000E+00

     total cpu time spent up to now is        7.1 secs

     total energy              =    -230.97720019 Ry
     estimated scf accuracy    <       0.74306204 Ry

     iteration #  4     ecut=    20.00 Ry     beta= 0.50
     Davidson diagonalization with overlap
     ethr =  4.95E-03,  avg # of iterations =  1.0

     negative rho (up, down):  8.339E-03 0.000E+00

     total cpu time spent up to now is        8.8 secs

     total energy              =    -230.82954450 Ry
     estimated scf accuracy    <       0.32404202 Ry

     iteration #  5     ecut=    20.00 Ry     beta= 0.50
     Davidson diagonalization with overlap
     ethr =  2.16E-03,  avg # of iterations =  2.0

     negative rho (up, down):  9.544E-03 0.000E+00

     total cpu time spent up to now is       10.5 secs

     total energy              =    -230.91012979 Ry
     estimated scf accuracy    <       0.00310652 Ry

     iteration #  6     ecut=    20.00 Ry     beta= 0.50
     Davidson diagonalization with overlap
     ethr =  2.07E-05,  avg # of iterations = 10.0

     negative rho (up, down):  7.071E-03 0.000E+00

     total cpu time spent up to now is       12.3 secs

     total energy              =    -230.81549371 Ry
     estimated scf accuracy    <       0.41184671 Ry

     iteration #  7     ecut=    20.00 Ry     beta= 0.50
     Davidson diagonalization with overlap
     ethr =  2.07E-05,  avg # of iterations =  3.0

     negative rho (up, down):  6.784E-03 0.000E+00

     total cpu time spent up to now is       14.1 secs

     total energy              =    -230.90464494 Ry
     estimated scf accuracy    <       0.00739559 Ry

     iteration #  8     ecut=    20.00 Ry     beta= 0.50
     Davidson diagonalization with overlap
     ethr =  2.07E-05,  avg # of iterations =  2.0

     negative rho (up, down):  6.894E-03 0.000E+00

     total cpu time spent up to now is       15.8 secs

     total energy              =    -230.89979534 Ry
     estimated scf accuracy    <       0.01936359 Ry

     iteration #  9     ecut=    20.00 Ry     beta= 0.50
     Davidson diagonalization with overlap
     ethr =  2.07E-05,  avg # of iterations =  2.0

     negative rho (up, down):  6.894E-03 0.000E+00

     total cpu time spent up to now is       17.4 secs

     total energy              =    -230.90002207 Ry
     estimated scf accuracy    <       0.00360138 Ry

     iteration # 10     ecut=    20.00 Ry     beta= 0.50
     Davidson diagonalization with overlap
     ethr =  2.07E-05,  avg # of iterations =  1.0

     negative rho (up, down):  6.884E-03 0.000E+00

     total cpu time spent up to now is       19.1 secs

     total energy              =    -230.90045795 Ry
     estimated scf accuracy    <       0.00019558 Ry

     iteration # 11     ecut=    20.00 Ry     beta= 0.50
     Davidson diagonalization with overlap
     ethr =  1.30E-06,  avg # of iterations =  2.0

     negative rho (up, down):  6.885E-03 0.000E+00

     total cpu time spent up to now is       20.7 secs

     total energy              =    -230.90038475 Ry
     estimated scf accuracy    <       0.00043184 Ry

     iteration # 12     ecut=    20.00 Ry     beta= 0.50
     Davidson diagonalization with overlap
     ethr =  1.30E-06,  avg # of iterations =  1.0

     negative rho (up, down):  6.887E-03 0.000E+00

     total cpu time spent up to now is       22.4 secs

     total energy              =    -230.90037072 Ry
     estimated scf accuracy    <       0.00009370 Ry

     iteration # 13     ecut=    20.00 Ry     beta= 0.50
     Davidson diagonalization with overlap
     ethr =  6.25E-07,  avg # of iterations =  2.0

     negative rho (up, down):  6.875E-03 0.000E+00

     total cpu time spent up to now is       24.2 secs

     End of self-consistent calculation

          k = 0.0000 0.0000 0.0000 (  5041 PWs)   bands (ev):

   -13.8022  -7.8959  -7.8959  -7.8518  -7.0591  -7.0533  -5.0150  -3.8281
    -3.8281  -2.3325   0.1419   0.8381

     the Fermi energy is    -3.8705 ev

!    total energy              =    -230.90038839 Ry

     total all-electron energy =     -3385.421503 Ry
     estimated scf accuracy    <       0.00000009 Ry
     smearing contrib. (-TS)   =      -0.00412614 Ry
     internal energy E=F+TS    =    -230.89626225 Ry

     The total energy is F=E-TS. E is the sum of the following terms:
     one-electron contribution =    -162.20289714 Ry
     hartree contribution      =      73.46456994 Ry
     xc contribution           =     -23.43002217 Ry
     ewald contribution        =     -15.68185147 Ry
     one-center paw contrib.   =    -103.04606142 Ry

     convergence has been achieved in  13 iterations

     negative rho (up, down):  6.875E-03 0.000E+00

     Forces acting on atoms (cartesian axes, Ry/au):

     atom    1 type  2   force =     0.00000000    0.00000000    0.05415163
     atom    2 type  1   force =     0.00000000    0.00000000   -0.05415163

     Total force =     0.076582     Total SCF correction =     0.000513


     Computing stress (Cartesian axis) and pressure


     negative rho (up, down):  6.875E-03 0.000E+00
          total   stress  (Ry/bohr**3)                   (kbar)     P=      -12.93
  -0.00010424   0.00000000   0.00000000          -15.33        0.00        0.00
   0.00000000  -0.00010424   0.00000000            0.00      -15.33        0.00
   0.00000000   0.00000000  -0.00005515            0.00        0.00       -8.11


     Writing all to output data dir Cu-C_PAW_scf_ecut_20_Ry/C-Cu_dimer.save/

     init_run     :      1.29s CPU      1.75s WALL (       1 calls)
     electrons    :     13.77s CPU     22.25s WALL (       1 calls)
     forces       :      0.61s CPU      0.95s WALL (       1 calls)
     stress       :      3.16s CPU      4.22s WALL (       1 calls)

     Called by init_run:
     wfcinit      :      0.04s CPU      0.05s WALL (       1 calls)
     potinit      :      0.43s CPU      0.49s WALL (       1 calls)
     hinit0       :      0.51s CPU      0.53s WALL (       1 calls)

     Called by electrons:
     c_bands      :      1.31s CPU      1.33s WALL (      13 calls)
     sum_band     :      4.21s CPU      8.45s WALL (      13 calls)
     v_of_rho     :      2.23s CPU      2.31s WALL (      14 calls)
     newd         :      3.05s CPU      7.55s WALL (      14 calls)
     PAW_pot      :      3.11s CPU      3.14s WALL (      14 calls)
     mix_rho      :      0.28s CPU      0.29s WALL (      13 calls)

     Called by c_bands:
     init_us_2    :      0.05s CPU      0.05s WALL (      27 calls)
     init_us_2:cp :      0.05s CPU      0.05s WALL (      27 calls)
     cegterg      :      1.21s CPU      1.23s WALL (      13 calls)

     Called by *egterg:
     cdiaghg      :      0.01s CPU      0.01s WALL (      45 calls)
     h_psi        :      1.12s CPU      1.13s WALL (      46 calls)
     s_psi        :      0.02s CPU      0.02s WALL (      46 calls)
     g_psi        :      0.01s CPU      0.01s WALL (      32 calls)

     Called by h_psi:
     h_psi:calbec :      0.02s CPU      0.02s WALL (      46 calls)
     vloc_psi     :      1.07s CPU      1.08s WALL (      46 calls)
     add_vuspsi   :      0.02s CPU      0.02s WALL (      46 calls)

     General routines
     calbec       :      0.03s CPU      0.04s WALL (      64 calls)
     fft          :      1.70s CPU      1.72s WALL (     205 calls)
     ffts         :      0.06s CPU      0.06s WALL (      27 calls)
     fftw         :      1.14s CPU      1.16s WALL (     996 calls)
     interpolate  :      0.16s CPU      0.16s WALL (      14 calls)


     PWSCF        :     19.02s CPU     29.39s WALL


   This run was terminated on:  19: 5:17  21May2025            

=------------------------------------------------------------------------------=
   JOB DONE.
=------------------------------------------------------------------------------=
