
     Program PWSCF v.7.0 starts on 21May2025 at 19:13:49 

     This program is part of the open-source Quantum ESPRESSO suite
     for quantum simulation of materials; please cite
         "P. Giannozzi et al., J. Phys.:Condens. Matter 21 395502 (2009);
         "P. Giannozzi et al., J. Phys.:Condens. Matter 29 465901 (2017);
         "P. Giannozzi et al., J. Chem. Phys. 152 154105 (2020);
          URL http://www.quantum-espresso.org", 
     in publications or presentations arising from this work. More details at
     http://www.quantum-espresso.org/quote

     Serial version
     2599 MiB available memory on the printing compute node when the environment starts

     Waiting for input...
     Reading input from standard input

     Current dimensions of program PWSCF are:
     Max number of different atomic species (ntypx) = 10
     Max number of k-points (npk) =  40000
     Max angular momentum in pseudopotentials (lmaxx) =  4
     file C.pbe-n-kjpaw_psl.1.0.0.UPF: wavefunction(s)  2S 2P renormalized

     G-vector sticks info
     --------------------
     sticks:   dense  smooth     PW     G-vecs:    dense   smooth      PW
     Sum       10029    5005   1245               755285   267179   33371

     Using Slab Decomposition



     bravais-lattice index     =            1
     lattice parameter (alat)  =      15.0000  a.u.
     unit-cell volume          =    3375.0000 (a.u.)^3
     number of atoms/cell      =            2
     number of atomic types    =            2
     number of electrons       =        15.00
     number of Kohn-Sham states=           12
     kinetic-energy cutoff     =      70.0000  Ry
     charge density cutoff     =     560.0000  Ry
     scf convergence threshold =      1.0E-06
     mixing beta               =       0.5000
     number of iterations used =            8  plain     mixing
     Exchange-correlation= SLA  PW   PBX  PBC
                           (   1   4   3   4   0   0   0)

     celldm(1)=  15.000000  celldm(2)=   0.000000  celldm(3)=   0.000000
     celldm(4)=   0.000000  celldm(5)=   0.000000  celldm(6)=   0.000000

     crystal axes: (cart. coord. in units of alat)
               a(1) = (   1.000000   0.000000   0.000000 )  
               a(2) = (   0.000000   1.000000   0.000000 )  
               a(3) = (   0.000000   0.000000   1.000000 )  

     reciprocal axes: (cart. coord. in units 2 pi/alat)
               b(1) = (  1.000000  0.000000  0.000000 )  
               b(2) = (  0.000000  1.000000  0.000000 )  
               b(3) = (  0.000000  0.000000  1.000000 )  


     PseudoPot. # 1 for Cu read from file:
     ../../QE/q-e/pseudo/Cu.pbe-kjpaw.UPF
     MD5 check sum: fe769b0ab65dca5f3352e2411ad4c6f8
     Pseudo is Projector augmented-wave + core cor, Zval = 11.0
     Generated using "atomic" code by A. Dal Corso (espresso distribution)
     Shape of augmentation charge: BESSEL
     Using radial grid of 1199 points,  6 beta functions with: 
                l(1) =   2
                l(2) =   2
                l(3) =   0
                l(4) =   0
                l(5) =   1
                l(6) =   1
     Q(r) pseudized with 0 coefficients 


     PseudoPot. # 2 for C  read from file:
     ../../QE/q-e/pseudo/C.pbe-n-kjpaw_psl.1.0.0.UPF
     MD5 check sum: 5f16ad9a65e90284d1d834d4ab3b0f7d
     Pseudo is Projector augmented-wave + core cor, Zval =  4.0
     Generated using &quot;atomic&quot; code by A. Dal Corso  v.6.3
     Shape of augmentation charge: PSQ
     Using radial grid of 1073 points,  4 beta functions with: 
                l(1) =   0
                l(2) =   0
                l(3) =   1
                l(4) =   1
     Q(r) pseudized with 0 coefficients 


     atomic species   valence    mass     pseudopotential
        Cu            11.00    63.54600     Cu( 1.00)
        C              4.00    12.01100     C ( 1.00)

      8 Sym. Ops. (no inversion) found



   Cartesian axes

     site n.     atom                  positions (alat units)
         1           C   tau(   1) = (   0.5000000   0.5000000   0.6118909  )
         2           Cu  tau(   2) = (   0.5000000   0.5000000   0.3881091  )

     number of k points=     1  Methfessel-Paxton smearing, width (Ry)=  0.0100
                       cart. coord. in units 2pi/alat
        k(    1) = (   0.0000000   0.0000000   0.0000000), wk =   2.0000000

     Dense  grid:   755285 G-vectors     FFT dimensions: ( 120, 120, 120)

     Smooth grid:   267179 G-vectors     FFT dimensions: (  80,  80,  80)

     Estimated max dynamical RAM per process >       2.73 GB

     Initial potential from superposition of free atoms

     starting charge      14.9997, renormalised to      15.0000

     negative rho (up, down):  2.673E-04 0.000E+00
     Starting wfcs are   13 randomized atomic wfcs

     total cpu time spent up to now is        8.6 secs

     Self-consistent Calculation

     iteration #  1     ecut=    70.00 Ry     beta= 0.50
     Davidson diagonalization with overlap
     ethr =  1.00E-02,  avg # of iterations =  2.0

     negative rho (up, down):  1.757E-04 0.000E+00

     total cpu time spent up to now is       20.2 secs

     total energy              =    -228.39648788 Ry
     estimated scf accuracy    <       3.17247992 Ry

     iteration #  2     ecut=    70.00 Ry     beta= 0.50
     Davidson diagonalization with overlap
     ethr =  1.00E-02,  avg # of iterations =  4.0

     negative rho (up, down):  1.404E-04 0.000E+00

     total cpu time spent up to now is       32.0 secs

     total energy              =    -230.77107037 Ry
     estimated scf accuracy    <       7.61705699 Ry

     iteration #  3     ecut=    70.00 Ry     beta= 0.50
     Davidson diagonalization with overlap
     ethr =  1.00E-02,  avg # of iterations =  2.0

     negative rho (up, down):  1.716E-04 0.000E+00

     total cpu time spent up to now is       43.5 secs

     total energy              =    -230.98592198 Ry
     estimated scf accuracy    <       1.16596284 Ry

     iteration #  4     ecut=    70.00 Ry     beta= 0.50
     Davidson diagonalization with overlap
     ethr =  7.77E-03,  avg # of iterations =  2.0

     negative rho (up, down):  2.145E-04 0.000E+00

     total cpu time spent up to now is       54.9 secs

     total energy              =    -231.00096309 Ry
     estimated scf accuracy    <       0.46688611 Ry

     iteration #  5     ecut=    70.00 Ry     beta= 0.50
     Davidson diagonalization with overlap
     ethr =  3.11E-03,  avg # of iterations =  2.0

     negative rho (up, down):  2.999E-04 0.000E+00

     total cpu time spent up to now is       66.3 secs

     total energy              =    -230.96631585 Ry
     estimated scf accuracy    <       0.22519552 Ry

     iteration #  6     ecut=    70.00 Ry     beta= 0.50
     Davidson diagonalization with overlap
     ethr =  1.50E-03,  avg # of iterations =  2.0

     negative rho (up, down):  4.083E-04 0.000E+00

     total cpu time spent up to now is       77.6 secs

     total energy              =    -230.98573305 Ry
     estimated scf accuracy    <       0.02589200 Ry

     iteration #  7     ecut=    70.00 Ry     beta= 0.50
     Davidson diagonalization with overlap
     ethr =  1.73E-04,  avg # of iterations =  7.0

     negative rho (up, down):  3.777E-04 0.000E+00

     total cpu time spent up to now is       89.8 secs

     total energy              =    -231.03470712 Ry
     estimated scf accuracy    <       0.18199369 Ry

     iteration #  8     ecut=    70.00 Ry     beta= 0.50
     Davidson diagonalization with overlap
     ethr =  1.73E-04,  avg # of iterations =  1.0

     negative rho (up, down):  3.412E-04 0.000E+00

     total cpu time spent up to now is      101.2 secs

     total energy              =    -231.01161980 Ry
     estimated scf accuracy    <       0.08678019 Ry

     iteration #  9     ecut=    70.00 Ry     beta= 0.50
     Davidson diagonalization with overlap
     ethr =  1.73E-04,  avg # of iterations =  2.0

     negative rho (up, down):  3.465E-04 0.000E+00

     total cpu time spent up to now is      112.6 secs

     total energy              =    -231.01785485 Ry
     estimated scf accuracy    <       0.00462373 Ry

     iteration # 10     ecut=    70.00 Ry     beta= 0.50
     Davidson diagonalization with overlap
     ethr =  3.08E-05,  avg # of iterations =  4.0

     negative rho (up, down):  3.381E-04 0.000E+00

     total cpu time spent up to now is      124.1 secs

     total energy              =    -231.02134848 Ry
     estimated scf accuracy    <       0.00058667 Ry

     iteration # 11     ecut=    70.00 Ry     beta= 0.50
     Davidson diagonalization with overlap
     ethr =  3.91E-06,  avg # of iterations =  5.0

     negative rho (up, down):  3.500E-04 0.000E+00

     total cpu time spent up to now is      135.9 secs

     total energy              =    -231.02017061 Ry
     estimated scf accuracy    <       0.00720475 Ry

     iteration # 12     ecut=    70.00 Ry     beta= 0.50
     Davidson diagonalization with overlap
     ethr =  3.91E-06,  avg # of iterations =  4.0

     negative rho (up, down):  3.513E-04 0.000E+00

     total cpu time spent up to now is      147.5 secs

     total energy              =    -231.02087012 Ry
     estimated scf accuracy    <       0.00054852 Ry

     iteration # 13     ecut=    70.00 Ry     beta= 0.50
     Davidson diagonalization with overlap
     ethr =  3.66E-06,  avg # of iterations =  1.0

     negative rho (up, down):  3.511E-04 0.000E+00

     total cpu time spent up to now is      158.9 secs

     total energy              =    -231.02083443 Ry
     estimated scf accuracy    <       0.00040535 Ry

     iteration # 14     ecut=    70.00 Ry     beta= 0.50
     Davidson diagonalization with overlap
     ethr =  2.70E-06,  avg # of iterations =  1.0

     negative rho (up, down):  3.506E-04 0.000E+00

     total cpu time spent up to now is      170.1 secs

     total energy              =    -231.02082587 Ry
     estimated scf accuracy    <       0.00021039 Ry

     iteration # 15     ecut=    70.00 Ry     beta= 0.50
     Davidson diagonalization with overlap
     ethr =  1.40E-06,  avg # of iterations =  1.0

     negative rho (up, down):  3.499E-04 0.000E+00

     total cpu time spent up to now is      181.0 secs

     total energy              =    -231.02080939 Ry
     estimated scf accuracy    <       0.00013987 Ry

     iteration # 16     ecut=    70.00 Ry     beta= 0.50
     Davidson diagonalization with overlap
     ethr =  9.32E-07,  avg # of iterations =  2.0

     negative rho (up, down):  3.497E-04 0.000E+00

     total cpu time spent up to now is      192.5 secs

     total energy              =    -231.02081097 Ry
     estimated scf accuracy    <       0.00005258 Ry

     iteration # 17     ecut=    70.00 Ry     beta= 0.50
     Davidson diagonalization with overlap
     ethr =  3.51E-07,  avg # of iterations =  4.0

     negative rho (up, down):  3.495E-04 0.000E+00

     total cpu time spent up to now is      204.0 secs

     total energy              =    -231.02082463 Ry
     estimated scf accuracy    <       0.00000177 Ry

     iteration # 18     ecut=    70.00 Ry     beta= 0.50
     Davidson diagonalization with overlap
     ethr =  1.18E-08,  avg # of iterations =  5.0

     negative rho (up, down):  3.492E-04 0.000E+00

     total cpu time spent up to now is      215.6 secs

     total energy              =    -231.02082525 Ry
     estimated scf accuracy    <       0.00000143 Ry

     iteration # 19     ecut=    70.00 Ry     beta= 0.50
     Davidson diagonalization with overlap
     ethr =  9.52E-09,  avg # of iterations =  4.0

     negative rho (up, down):  3.489E-04 0.000E+00

     total cpu time spent up to now is      227.0 secs

     End of self-consistent calculation

          k = 0.0000 0.0000 0.0000 ( 33371 PWs)   bands (ev):

   -13.4576  -7.4586  -7.4586  -7.4274  -6.6191  -6.6187  -5.0150  -3.8165
    -3.8165  -2.4251   0.7841   0.7848

     the Fermi energy is    -3.8589 ev

!    total energy              =    -231.02082595 Ry

     total all-electron energy =     -3385.541941 Ry
     estimated scf accuracy    <       0.00000017 Ry
     smearing contrib. (-TS)   =      -0.00412614 Ry
     internal energy E=F+TS    =    -231.01669980 Ry

     The total energy is F=E-TS. E is the sum of the following terms:
     one-electron contribution =    -162.66231414 Ry
     hartree contribution      =      73.48115696 Ry
     xc contribution           =     -23.46015154 Ry
     ewald contribution        =     -15.68185141 Ry
     one-center paw contrib.   =    -102.69353966 Ry

     convergence has been achieved in  19 iterations

     negative rho (up, down):  3.489E-04 0.000E+00

     Forces acting on atoms (cartesian axes, Ry/au):

     atom    1 type  2   force =     0.00000000    0.00000000   -0.00098841
     atom    2 type  1   force =     0.00000000    0.00000000    0.00098841

     Total force =     0.001398     Total SCF correction =     0.000658
     SCF correction compared to forces is large: reduce conv_thr to get better values


     Computing stress (Cartesian axis) and pressure


     negative rho (up, down):  3.489E-04 0.000E+00
          total   stress  (Ry/bohr**3)                   (kbar)     P=        0.21
   0.00000004   0.00000000   0.00000000            0.01        0.00        0.00
   0.00000000   0.00000004   0.00000000            0.00        0.01        0.00
   0.00000000   0.00000000   0.00000424            0.00        0.00        0.62


     Writing all to output data dir Cu-C_PAW_scf_ecut_70_Ry/C-Cu_dimer.save/

     init_run     :      5.37s CPU      8.41s WALL (       1 calls)
     electrons    :    124.87s CPU    218.53s WALL (       1 calls)
     forces       :      4.22s CPU      6.91s WALL (       1 calls)
     stress       :     20.44s CPU     28.57s WALL (       1 calls)

     Called by init_run:
     wfcinit      :      0.30s CPU      0.32s WALL (       1 calls)
     potinit      :      1.66s CPU      1.98s WALL (       1 calls)
     hinit0       :      1.19s CPU      1.31s WALL (       1 calls)

     Called by electrons:
     c_bands      :     14.10s CPU     14.30s WALL (      19 calls)
     sum_band     :     46.60s CPU     91.52s WALL (      19 calls)
     v_of_rho     :     22.71s CPU     26.39s WALL (      20 calls)
     newd         :     34.09s CPU     81.45s WALL (      20 calls)
     PAW_pot      :      4.55s CPU      4.60s WALL (      20 calls)
     mix_rho      :      3.69s CPU      3.80s WALL (      19 calls)

     Called by c_bands:
     init_us_2    :      0.46s CPU      0.48s WALL (      39 calls)
     init_us_2:cp :      0.46s CPU      0.48s WALL (      39 calls)
     cegterg      :     13.15s CPU     13.34s WALL (      19 calls)

     Called by *egterg:
     cdiaghg      :      0.02s CPU      0.02s WALL (      74 calls)
     h_psi        :     11.77s CPU     11.94s WALL (      75 calls)
     s_psi        :      0.26s CPU      0.26s WALL (      75 calls)
     g_psi        :      0.13s CPU      0.13s WALL (      55 calls)

     Called by h_psi:
     h_psi:calbec :      0.28s CPU      0.28s WALL (      75 calls)
     vloc_psi     :     11.18s CPU     11.32s WALL (      75 calls)
     add_vuspsi   :      0.26s CPU      0.26s WALL (      75 calls)

     General routines
     calbec       :      0.39s CPU      0.39s WALL (      99 calls)
     fft          :     17.43s CPU     17.61s WALL (     283 calls)
     ffts         :      0.63s CPU      0.63s WALL (      39 calls)
     fftw         :     11.84s CPU     11.99s WALL (    1506 calls)
     interpolate  :      1.81s CPU      1.83s WALL (      20 calls)


     PWSCF        :   2m35.10s CPU   4m22.77s WALL


   This run was terminated on:  19:18:12  21May2025            

=------------------------------------------------------------------------------=
   JOB DONE.
=------------------------------------------------------------------------------=
