
     Program PWSCF v.7.0 starts on 21May2025 at 19: 8:11 

     This program is part of the open-source Quantum ESPRESSO suite
     for quantum simulation of materials; please cite
         "P. Giannozzi et al., J. Phys.:Condens. Matter 21 395502 (2009);
         "P. Giannozzi et al., J. Phys.:Condens. Matter 29 465901 (2017);
         "P. Giannozzi et al., J. Chem. Phys. 152 154105 (2020);
          URL http://www.quantum-espresso.org", 
     in publications or presentations arising from this work. More details at
     http://www.quantum-espresso.org/quote

     Serial version
     2243 MiB available memory on the printing compute node when the environment starts

     Waiting for input...
     Reading input from standard input

     Current dimensions of program PWSCF are:
     Max number of different atomic species (ntypx) = 10
     Max number of k-points (npk) =  40000
     Max angular momentum in pseudopotentials (lmaxx) =  4
     file C.pbe-n-kjpaw_psl.1.0.0.UPF: wavefunction(s)  2S 2P renormalized

     G-vector sticks info
     --------------------
     sticks:   dense  smooth     PW     G-vecs:    dense   smooth      PW
     Sum        7153    3577    885               455863   161235   20005

     Using Slab Decomposition



     bravais-lattice index     =            1
     lattice parameter (alat)  =      15.0000  a.u.
     unit-cell volume          =    3375.0000 (a.u.)^3
     number of atoms/cell      =            2
     number of atomic types    =            2
     number of electrons       =        15.00
     number of Kohn-Sham states=           12
     kinetic-energy cutoff     =      50.0000  Ry
     charge density cutoff     =     400.0000  Ry
     scf convergence threshold =      1.0E-06
     mixing beta               =       0.5000
     number of iterations used =            8  plain     mixing
     Exchange-correlation= SLA  PW   PBX  PBC
                           (   1   4   3   4   0   0   0)

     celldm(1)=  15.000000  celldm(2)=   0.000000  celldm(3)=   0.000000
     celldm(4)=   0.000000  celldm(5)=   0.000000  celldm(6)=   0.000000

     crystal axes: (cart. coord. in units of alat)
               a(1) = (   1.000000   0.000000   0.000000 )  
               a(2) = (   0.000000   1.000000   0.000000 )  
               a(3) = (   0.000000   0.000000   1.000000 )  

     reciprocal axes: (cart. coord. in units 2 pi/alat)
               b(1) = (  1.000000  0.000000  0.000000 )  
               b(2) = (  0.000000  1.000000  0.000000 )  
               b(3) = (  0.000000  0.000000  1.000000 )  


     PseudoPot. # 1 for Cu read from file:
     ../../QE/q-e/pseudo/Cu.pbe-kjpaw.UPF
     MD5 check sum: fe769b0ab65dca5f3352e2411ad4c6f8
     Pseudo is Projector augmented-wave + core cor, Zval = 11.0
     Generated using "atomic" code by A. Dal Corso (espresso distribution)
     Shape of augmentation charge: BESSEL
     Using radial grid of 1199 points,  6 beta functions with: 
                l(1) =   2
                l(2) =   2
                l(3) =   0
                l(4) =   0
                l(5) =   1
                l(6) =   1
     Q(r) pseudized with 0 coefficients 


     PseudoPot. # 2 for C  read from file:
     ../../QE/q-e/pseudo/C.pbe-n-kjpaw_psl.1.0.0.UPF
     MD5 check sum: 5f16ad9a65e90284d1d834d4ab3b0f7d
     Pseudo is Projector augmented-wave + core cor, Zval =  4.0
     Generated using &quot;atomic&quot; code by A. Dal Corso  v.6.3
     Shape of augmentation charge: PSQ
     Using radial grid of 1073 points,  4 beta functions with: 
                l(1) =   0
                l(2) =   0
                l(3) =   1
                l(4) =   1
     Q(r) pseudized with 0 coefficients 


     atomic species   valence    mass     pseudopotential
        Cu            11.00    63.54600     Cu( 1.00)
        C              4.00    12.01100     C ( 1.00)

      8 Sym. Ops. (no inversion) found



   Cartesian axes

     site n.     atom                  positions (alat units)
         1           C   tau(   1) = (   0.5000000   0.5000000   0.6118909  )
         2           Cu  tau(   2) = (   0.5000000   0.5000000   0.3881091  )

     number of k points=     1  Methfessel-Paxton smearing, width (Ry)=  0.0100
                       cart. coord. in units 2pi/alat
        k(    1) = (   0.0000000   0.0000000   0.0000000), wk =   2.0000000

     Dense  grid:   455863 G-vectors     FFT dimensions: (  96,  96,  96)

     Smooth grid:   161235 G-vectors     FFT dimensions: (  72,  72,  72)

     Estimated max dynamical RAM per process >       1.64 GB

     Initial potential from superposition of free atoms

     starting charge      14.9997, renormalised to      15.0000

     negative rho (up, down):  1.360E-04 0.000E+00
     Starting wfcs are   13 randomized atomic wfcs

     total cpu time spent up to now is        7.6 secs

     Self-consistent Calculation

     iteration #  1     ecut=    50.00 Ry     beta= 0.50
     Davidson diagonalization with overlap
     ethr =  1.00E-02,  avg # of iterations =  2.0

     negative rho (up, down):  7.190E-05 0.000E+00

     total cpu time spent up to now is       14.3 secs

     total energy              =    -228.39266539 Ry
     estimated scf accuracy    <       3.17431700 Ry

     iteration #  2     ecut=    50.00 Ry     beta= 0.50
     Davidson diagonalization with overlap
     ethr =  1.00E-02,  avg # of iterations =  4.0

     negative rho (up, down):  5.210E-05 0.000E+00

     total cpu time spent up to now is       21.3 secs

     total energy              =    -230.74480442 Ry
     estimated scf accuracy    <       7.67326708 Ry

     iteration #  3     ecut=    50.00 Ry     beta= 0.50
     Davidson diagonalization with overlap
     ethr =  1.00E-02,  avg # of iterations =  2.0

     negative rho (up, down):  7.077E-05 0.000E+00

     total cpu time spent up to now is       28.3 secs

     total energy              =    -230.97851298 Ry
     estimated scf accuracy    <       1.15784762 Ry

     iteration #  4     ecut=    50.00 Ry     beta= 0.50
     Davidson diagonalization with overlap
     ethr =  7.72E-03,  avg # of iterations =  2.0

     negative rho (up, down):  9.190E-05 0.000E+00

     total cpu time spent up to now is       35.0 secs

     total energy              =    -231.01176246 Ry
     estimated scf accuracy    <       0.45046859 Ry

     iteration #  5     ecut=    50.00 Ry     beta= 0.50
     Davidson diagonalization with overlap
     ethr =  3.00E-03,  avg # of iterations =  2.0

     negative rho (up, down):  1.379E-04 0.000E+00

     total cpu time spent up to now is       41.7 secs

     total energy              =    -230.99729971 Ry
     estimated scf accuracy    <       0.22919965 Ry

     iteration #  6     ecut=    50.00 Ry     beta= 0.50
     Davidson diagonalization with overlap
     ethr =  1.53E-03,  avg # of iterations =  2.0

     negative rho (up, down):  2.191E-04 0.000E+00

     total cpu time spent up to now is       48.6 secs

     total energy              =    -230.96913311 Ry
     estimated scf accuracy    <       0.08627889 Ry

     iteration #  7     ecut=    50.00 Ry     beta= 0.50
     Davidson diagonalization with overlap
     ethr =  5.75E-04,  avg # of iterations =  3.0

     negative rho (up, down):  2.122E-04 0.000E+00

     total cpu time spent up to now is       55.2 secs

     total energy              =    -231.02887516 Ry
     estimated scf accuracy    <       0.09890731 Ry

     iteration #  8     ecut=    50.00 Ry     beta= 0.50
     Davidson diagonalization with overlap
     ethr =  5.75E-04,  avg # of iterations =  1.0

     negative rho (up, down):  1.527E-04 0.000E+00

     total cpu time spent up to now is       61.8 secs

     total energy              =    -231.00184445 Ry
     estimated scf accuracy    <       0.06568914 Ry

     iteration #  9     ecut=    50.00 Ry     beta= 0.50
     Davidson diagonalization with overlap
     ethr =  4.38E-04,  avg # of iterations =  1.0

     negative rho (up, down):  1.579E-04 0.000E+00

     total cpu time spent up to now is       68.6 secs

     total energy              =    -231.02113701 Ry
     estimated scf accuracy    <       0.00787012 Ry

     iteration # 10     ecut=    50.00 Ry     beta= 0.50
     Davidson diagonalization with overlap
     ethr =  5.25E-05,  avg # of iterations =  1.0

     negative rho (up, down):  1.482E-04 0.000E+00

     total cpu time spent up to now is       75.4 secs

     total energy              =    -231.02308302 Ry
     estimated scf accuracy    <       0.00627851 Ry

     iteration # 11     ecut=    50.00 Ry     beta= 0.50
     Davidson diagonalization with overlap
     ethr =  4.19E-05,  avg # of iterations =  1.0

     negative rho (up, down):  1.810E-04 0.000E+00

     total cpu time spent up to now is       82.2 secs

     total energy              =    -231.01852713 Ry
     estimated scf accuracy    <       0.01884209 Ry

     iteration # 12     ecut=    50.00 Ry     beta= 0.50
     Davidson diagonalization with overlap
     ethr =  4.19E-05,  avg # of iterations =  2.0

     negative rho (up, down):  1.892E-04 0.000E+00

     total cpu time spent up to now is       89.0 secs

     total energy              =    -231.01990626 Ry
     estimated scf accuracy    <       0.00050731 Ry

     iteration # 13     ecut=    50.00 Ry     beta= 0.50
     Davidson diagonalization with overlap
     ethr =  3.38E-06,  avg # of iterations =  5.0

     negative rho (up, down):  1.840E-04 0.000E+00

     total cpu time spent up to now is       96.0 secs

     total energy              =    -231.02013190 Ry
     estimated scf accuracy    <       0.00122769 Ry

     iteration # 14     ecut=    50.00 Ry     beta= 0.50
     Davidson diagonalization with overlap
     ethr =  3.38E-06,  avg # of iterations =  1.0

     negative rho (up, down):  1.745E-04 0.000E+00

     total cpu time spent up to now is      102.8 secs

     total energy              =    -231.02017432 Ry
     estimated scf accuracy    <       0.00027515 Ry

     iteration # 15     ecut=    50.00 Ry     beta= 0.50
     Davidson diagonalization with overlap
     ethr =  1.83E-06,  avg # of iterations =  2.0

     negative rho (up, down):  1.680E-04 0.000E+00

     total cpu time spent up to now is      109.4 secs

     total energy              =    -231.02020704 Ry
     estimated scf accuracy    <       0.00001354 Ry

     iteration # 16     ecut=    50.00 Ry     beta= 0.50
     Davidson diagonalization with overlap
     ethr =  9.03E-08,  avg # of iterations =  2.0

     negative rho (up, down):  1.687E-04 0.000E+00

     total cpu time spent up to now is      115.9 secs

     total energy              =    -231.02020961 Ry
     estimated scf accuracy    <       0.00001673 Ry

     iteration # 17     ecut=    50.00 Ry     beta= 0.50
     Davidson diagonalization with overlap
     ethr =  9.03E-08,  avg # of iterations =  1.0

     negative rho (up, down):  1.680E-04 0.000E+00

     total cpu time spent up to now is      122.4 secs

     total energy              =    -231.02020602 Ry
     estimated scf accuracy    <       0.00000600 Ry

     iteration # 18     ecut=    50.00 Ry     beta= 0.50
     Davidson diagonalization with overlap
     ethr =  4.00E-08,  avg # of iterations =  2.0

     negative rho (up, down):  1.673E-04 0.000E+00

     total cpu time spent up to now is      129.0 secs

     total energy              =    -231.02020869 Ry
     estimated scf accuracy    <       0.00000123 Ry

     iteration # 19     ecut=    50.00 Ry     beta= 0.50
     Davidson diagonalization with overlap
     ethr =  8.20E-09,  avg # of iterations =  2.0

     negative rho (up, down):  1.673E-04 0.000E+00

     total cpu time spent up to now is      135.6 secs

     End of self-consistent calculation

          k = 0.0000 0.0000 0.0000 ( 20005 PWs)   bands (ev):

   -13.4583  -7.4533  -7.4533  -7.4227  -6.6119  -6.6116  -5.0144  -3.8154
    -3.8154  -2.4249   0.7845   0.7847

     the Fermi energy is    -3.8578 ev

!    total energy              =    -231.02020802 Ry

     total all-electron energy =     -3385.541323 Ry
     estimated scf accuracy    <       0.00000035 Ry
     smearing contrib. (-TS)   =      -0.00412614 Ry
     internal energy E=F+TS    =    -231.01608188 Ry

     The total energy is F=E-TS. E is the sum of the following terms:
     one-electron contribution =    -162.64842200 Ry
     hartree contribution      =      73.46810861 Ry
     xc contribution           =     -23.45794130 Ry
     ewald contribution        =     -15.68185141 Ry
     one-center paw contrib.   =    -102.69597579 Ry

     convergence has been achieved in  19 iterations

     negative rho (up, down):  1.673E-04 0.000E+00

     Forces acting on atoms (cartesian axes, Ry/au):

     atom    1 type  2   force =     0.00000000    0.00000000   -0.00089319
     atom    2 type  1   force =     0.00000000    0.00000000    0.00089319

     Total force =     0.001263     Total SCF correction =     0.000786
     SCF correction compared to forces is large: reduce conv_thr to get better values


     Computing stress (Cartesian axis) and pressure


     negative rho (up, down):  1.673E-04 0.000E+00
          total   stress  (Ry/bohr**3)                   (kbar)     P=        0.01
  -0.00000116   0.00000000   0.00000000           -0.17        0.00        0.00
   0.00000000  -0.00000116   0.00000000            0.00       -0.17        0.00
   0.00000000   0.00000000   0.00000258            0.00        0.00        0.38


     Writing all to output data dir Cu-C_PAW_scf_ecut_50_Ry/C-Cu_dimer.save/

     init_run     :      5.22s CPU      7.41s WALL (       1 calls)
     electrons    :     72.57s CPU    128.04s WALL (       1 calls)
     forces       :      2.35s CPU      3.90s WALL (       1 calls)
     stress       :     12.23s CPU     16.92s WALL (       1 calls)

     Called by init_run:
     wfcinit      :      0.16s CPU      0.16s WALL (       1 calls)
     potinit      :      2.83s CPU      3.53s WALL (       1 calls)
     hinit0       :      0.92s CPU      0.97s WALL (       1 calls)

     Called by electrons:
     c_bands      :      6.60s CPU      6.70s WALL (      19 calls)
     sum_band     :     27.93s CPU     54.75s WALL (      19 calls)
     v_of_rho     :     13.82s CPU     16.09s WALL (      20 calls)
     newd         :     20.17s CPU     48.30s WALL (      20 calls)
     PAW_pot      :      4.47s CPU      4.52s WALL (      20 calls)
     mix_rho      :      2.12s CPU      2.19s WALL (      19 calls)

     Called by c_bands:
     init_us_2    :      0.28s CPU      0.29s WALL (      39 calls)
     init_us_2:cp :      0.28s CPU      0.29s WALL (      39 calls)
     cegterg      :      6.02s CPU      6.11s WALL (      19 calls)

     Called by *egterg:
     cdiaghg      :      0.01s CPU      0.01s WALL (      57 calls)
     h_psi        :      5.43s CPU      5.50s WALL (      58 calls)
     s_psi        :      0.12s CPU      0.12s WALL (      58 calls)
     g_psi        :      0.06s CPU      0.06s WALL (      38 calls)

     Called by h_psi:
     h_psi:calbec :      0.14s CPU      0.15s WALL (      58 calls)
     vloc_psi     :      5.13s CPU      5.20s WALL (      58 calls)
     add_vuspsi   :      0.13s CPU      0.13s WALL (      58 calls)

     General routines
     calbec       :      0.21s CPU      0.22s WALL (      82 calls)
     fft          :     10.52s CPU     10.68s WALL (     283 calls)
     ffts         :      0.30s CPU      0.30s WALL (      39 calls)
     fftw         :      5.37s CPU      5.44s WALL (    1348 calls)
     interpolate  :      0.92s CPU      0.94s WALL (      20 calls)


     PWSCF        :   1m32.56s CPU   2m36.55s WALL


   This run was terminated on:  19:10:47  21May2025            

=------------------------------------------------------------------------------=
   JOB DONE.
=------------------------------------------------------------------------------=
