
     Program PWSCF v.7.0 starts on 21May2025 at 19: 6:26 

     This program is part of the open-source Quantum ESPRESSO suite
     for quantum simulation of materials; please cite
         "P. Giannozzi et al., J. Phys.:Condens. Matter 21 395502 (2009);
         "P. Giannozzi et al., J. Phys.:Condens. Matter 29 465901 (2017);
         "P. Giannozzi et al., J. Chem. Phys. 152 154105 (2020);
          URL http://www.quantum-espresso.org", 
     in publications or presentations arising from this work. More details at
     http://www.quantum-espresso.org/quote

     Serial version
     998 MiB available memory on the printing compute node when the environment starts

     Waiting for input...
     Reading input from standard input

     Current dimensions of program PWSCF are:
     Max number of different atomic species (ntypx) = 10
     Max number of k-points (npk) =  40000
     Max angular momentum in pseudopotentials (lmaxx) =  4
     file C.pbe-n-kjpaw_psl.1.0.0.UPF: wavefunction(s)  2S 2P renormalized

     G-vector sticks info
     --------------------
     sticks:   dense  smooth     PW     G-vecs:    dense   smooth      PW
     Sum        5721    2869    717               326029   115313   14363

     Using Slab Decomposition



     bravais-lattice index     =            1
     lattice parameter (alat)  =      15.0000  a.u.
     unit-cell volume          =    3375.0000 (a.u.)^3
     number of atoms/cell      =            2
     number of atomic types    =            2
     number of electrons       =        15.00
     number of Kohn-Sham states=           12
     kinetic-energy cutoff     =      40.0000  Ry
     charge density cutoff     =     320.0000  Ry
     scf convergence threshold =      1.0E-06
     mixing beta               =       0.5000
     number of iterations used =            8  plain     mixing
     Exchange-correlation= SLA  PW   PBX  PBC
                           (   1   4   3   4   0   0   0)

     celldm(1)=  15.000000  celldm(2)=   0.000000  celldm(3)=   0.000000
     celldm(4)=   0.000000  celldm(5)=   0.000000  celldm(6)=   0.000000

     crystal axes: (cart. coord. in units of alat)
               a(1) = (   1.000000   0.000000   0.000000 )  
               a(2) = (   0.000000   1.000000   0.000000 )  
               a(3) = (   0.000000   0.000000   1.000000 )  

     reciprocal axes: (cart. coord. in units 2 pi/alat)
               b(1) = (  1.000000  0.000000  0.000000 )  
               b(2) = (  0.000000  1.000000  0.000000 )  
               b(3) = (  0.000000  0.000000  1.000000 )  


     PseudoPot. # 1 for Cu read from file:
     ../../QE/q-e/pseudo/Cu.pbe-kjpaw.UPF
     MD5 check sum: fe769b0ab65dca5f3352e2411ad4c6f8
     Pseudo is Projector augmented-wave + core cor, Zval = 11.0
     Generated using "atomic" code by A. Dal Corso (espresso distribution)
     Shape of augmentation charge: BESSEL
     Using radial grid of 1199 points,  6 beta functions with: 
                l(1) =   2
                l(2) =   2
                l(3) =   0
                l(4) =   0
                l(5) =   1
                l(6) =   1
     Q(r) pseudized with 0 coefficients 


     PseudoPot. # 2 for C  read from file:
     ../../QE/q-e/pseudo/C.pbe-n-kjpaw_psl.1.0.0.UPF
     MD5 check sum: 5f16ad9a65e90284d1d834d4ab3b0f7d
     Pseudo is Projector augmented-wave + core cor, Zval =  4.0
     Generated using &quot;atomic&quot; code by A. Dal Corso  v.6.3
     Shape of augmentation charge: PSQ
     Using radial grid of 1073 points,  4 beta functions with: 
                l(1) =   0
                l(2) =   0
                l(3) =   1
                l(4) =   1
     Q(r) pseudized with 0 coefficients 


     atomic species   valence    mass     pseudopotential
        Cu            11.00    63.54600     Cu( 1.00)
        C              4.00    12.01100     C ( 1.00)

      8 Sym. Ops. (no inversion) found



   Cartesian axes

     site n.     atom                  positions (alat units)
         1           C   tau(   1) = (   0.5000000   0.5000000   0.6118909  )
         2           Cu  tau(   2) = (   0.5000000   0.5000000   0.3881091  )

     number of k points=     1  Methfessel-Paxton smearing, width (Ry)=  0.0100
                       cart. coord. in units 2pi/alat
        k(    1) = (   0.0000000   0.0000000   0.0000000), wk =   2.0000000

     Dense  grid:   326029 G-vectors     FFT dimensions: (  90,  90,  90)

     Smooth grid:   115313 G-vectors     FFT dimensions: (  64,  64,  64)

     Estimated max dynamical RAM per process >       1.18 GB

     Check: negative core charge=   -0.000001

     Initial potential from superposition of free atoms

     starting charge      14.9997, renormalised to      15.0000

     negative rho (up, down):  5.551E-04 0.000E+00
     Starting wfcs are   13 randomized atomic wfcs

     total cpu time spent up to now is        3.9 secs

     Self-consistent Calculation

     iteration #  1     ecut=    40.00 Ry     beta= 0.50
     Davidson diagonalization with overlap
     ethr =  1.00E-02,  avg # of iterations =  2.0

     negative rho (up, down):  4.125E-04 0.000E+00

     total cpu time spent up to now is        8.6 secs

     total energy              =    -228.39548646 Ry
     estimated scf accuracy    <       3.17111957 Ry

     iteration #  2     ecut=    40.00 Ry     beta= 0.50
     Davidson diagonalization with overlap
     ethr =  1.00E-02,  avg # of iterations =  4.0

     negative rho (up, down):  4.245E-04 0.000E+00

     total cpu time spent up to now is       13.4 secs

     total energy              =    -230.72521337 Ry
     estimated scf accuracy    <       7.70130559 Ry

     iteration #  3     ecut=    40.00 Ry     beta= 0.50
     Davidson diagonalization with overlap
     ethr =  1.00E-02,  avg # of iterations =  2.0

     negative rho (up, down):  4.660E-04 0.000E+00

     total cpu time spent up to now is       18.0 secs

     total energy              =    -230.97365131 Ry
     estimated scf accuracy    <       1.14555164 Ry

     iteration #  4     ecut=    40.00 Ry     beta= 0.50
     Davidson diagonalization with overlap
     ethr =  7.64E-03,  avg # of iterations =  2.0

     negative rho (up, down):  5.109E-04 0.000E+00

     total cpu time spent up to now is       22.9 secs

     total energy              =    -231.00718684 Ry
     estimated scf accuracy    <       0.44573807 Ry

     iteration #  5     ecut=    40.00 Ry     beta= 0.50
     Davidson diagonalization with overlap
     ethr =  2.97E-03,  avg # of iterations =  2.0

     negative rho (up, down):  6.538E-04 0.000E+00

     total cpu time spent up to now is       27.7 secs

     total energy              =    -230.99864108 Ry
     estimated scf accuracy    <       0.20812345 Ry

     iteration #  6     ecut=    40.00 Ry     beta= 0.50
     Davidson diagonalization with overlap
     ethr =  1.39E-03,  avg # of iterations =  2.0

     negative rho (up, down):  8.736E-04 0.000E+00

     total cpu time spent up to now is       32.5 secs

     total energy              =    -230.97697799 Ry
     estimated scf accuracy    <       0.07353045 Ry

     iteration #  7     ecut=    40.00 Ry     beta= 0.50
     Davidson diagonalization with overlap
     ethr =  4.90E-04,  avg # of iterations =  3.0

     negative rho (up, down):  8.339E-04 0.000E+00

     total cpu time spent up to now is       37.5 secs

     total energy              =    -231.02739861 Ry
     estimated scf accuracy    <       0.07755021 Ry

     iteration #  8     ecut=    40.00 Ry     beta= 0.50
     Davidson diagonalization with overlap
     ethr =  4.90E-04,  avg # of iterations =  1.0

     negative rho (up, down):  7.022E-04 0.000E+00

     total cpu time spent up to now is       42.1 secs

     total energy              =    -231.00718984 Ry
     estimated scf accuracy    <       0.05778683 Ry

     iteration #  9     ecut=    40.00 Ry     beta= 0.50
     Davidson diagonalization with overlap
     ethr =  3.85E-04,  avg # of iterations =  1.0

     negative rho (up, down):  7.077E-04 0.000E+00

     total cpu time spent up to now is       46.8 secs

     total energy              =    -231.02008007 Ry
     estimated scf accuracy    <       0.00232565 Ry

     iteration # 10     ecut=    40.00 Ry     beta= 0.50
     Davidson diagonalization with overlap
     ethr =  1.55E-05,  avg # of iterations =  4.0

     negative rho (up, down):  7.039E-04 0.000E+00

     total cpu time spent up to now is       51.7 secs

     total energy              =    -231.02081807 Ry
     estimated scf accuracy    <       0.00427222 Ry

     iteration # 11     ecut=    40.00 Ry     beta= 0.50
     Davidson diagonalization with overlap
     ethr =  1.55E-05,  avg # of iterations =  1.0

     negative rho (up, down):  7.468E-04 0.000E+00

     total cpu time spent up to now is       56.4 secs

     total energy              =    -231.02037853 Ry
     estimated scf accuracy    <       0.00766632 Ry

     iteration # 12     ecut=    40.00 Ry     beta= 0.50
     Davidson diagonalization with overlap
     ethr =  1.55E-05,  avg # of iterations =  1.0

     negative rho (up, down):  8.137E-04 0.000E+00

     total cpu time spent up to now is       61.1 secs

     total energy              =    -231.01872735 Ry
     estimated scf accuracy    <       0.00497714 Ry

     iteration # 13     ecut=    40.00 Ry     beta= 0.50
     Davidson diagonalization with overlap
     ethr =  1.55E-05,  avg # of iterations =  2.0

     negative rho (up, down):  7.827E-04 0.000E+00

     total cpu time spent up to now is       65.8 secs

     total energy              =    -231.01955110 Ry
     estimated scf accuracy    <       0.00013855 Ry

     iteration # 14     ecut=    40.00 Ry     beta= 0.50
     Davidson diagonalization with overlap
     ethr =  9.24E-07,  avg # of iterations =  4.0

     negative rho (up, down):  7.374E-04 0.000E+00

     total cpu time spent up to now is       70.5 secs

     total energy              =    -231.01956878 Ry
     estimated scf accuracy    <       0.00005579 Ry

     iteration # 15     ecut=    40.00 Ry     beta= 0.50
     Davidson diagonalization with overlap
     ethr =  3.72E-07,  avg # of iterations =  1.0

     negative rho (up, down):  7.298E-04 0.000E+00

     total cpu time spent up to now is       75.0 secs

     total energy              =    -231.01956778 Ry
     estimated scf accuracy    <       0.00004159 Ry

     iteration # 16     ecut=    40.00 Ry     beta= 0.50
     Davidson diagonalization with overlap
     ethr =  2.77E-07,  avg # of iterations =  1.0

     negative rho (up, down):  7.272E-04 0.000E+00

     total cpu time spent up to now is       79.6 secs

     total energy              =    -231.01956826 Ry
     estimated scf accuracy    <       0.00002799 Ry

     iteration # 17     ecut=    40.00 Ry     beta= 0.50
     Davidson diagonalization with overlap
     ethr =  1.87E-07,  avg # of iterations =  1.0

     negative rho (up, down):  7.243E-04 0.000E+00

     total cpu time spent up to now is       84.3 secs

     total energy              =    -231.01956071 Ry
     estimated scf accuracy    <       0.00002561 Ry

     iteration # 18     ecut=    40.00 Ry     beta= 0.50
     Davidson diagonalization with overlap
     ethr =  1.71E-07,  avg # of iterations =  1.0

     negative rho (up, down):  7.233E-04 0.000E+00

     total cpu time spent up to now is       89.1 secs

     End of self-consistent calculation

          k = 0.0000 0.0000 0.0000 ( 14363 PWs)   bands (ev):

   -13.4588  -7.4582  -7.4582  -7.4270  -6.6183  -6.6179  -5.0149  -3.8165
    -3.8165  -2.4266   0.7807   0.7811

     the Fermi energy is    -3.8589 ev

!    total energy              =    -231.01956393 Ry

     total all-electron energy =     -3385.540679 Ry
     estimated scf accuracy    <       0.00000042 Ry
     smearing contrib. (-TS)   =      -0.00412614 Ry
     internal energy E=F+TS    =    -231.01543779 Ry

     The total energy is F=E-TS. E is the sum of the following terms:
     one-electron contribution =    -162.66555952 Ry
     hartree contribution      =      73.47967645 Ry
     xc contribution           =     -23.45953140 Ry
     ewald contribution        =     -15.68185141 Ry
     one-center paw contrib.   =    -102.68817191 Ry

     convergence has been achieved in  18 iterations

     negative rho (up, down):  7.233E-04 0.000E+00

     Forces acting on atoms (cartesian axes, Ry/au):

     atom    1 type  2   force =     0.00000000    0.00000000   -0.00064720
     atom    2 type  1   force =     0.00000000    0.00000000    0.00064720

     Total force =     0.000915     Total SCF correction =     0.001503
     SCF correction compared to forces is large: reduce conv_thr to get better values


     Computing stress (Cartesian axis) and pressure


     negative rho (up, down):  7.233E-04 0.000E+00
          total   stress  (Ry/bohr**3)                   (kbar)     P=        0.07
  -0.00000089   0.00000000   0.00000000           -0.13        0.00        0.00
   0.00000000  -0.00000089   0.00000000            0.00       -0.13        0.00
   0.00000000   0.00000000   0.00000324            0.00        0.00        0.48


     Writing all to output data dir Cu-C_PAW_scf_ecut_40_Ry/C-Cu_dimer.save/

     init_run     :      2.54s CPU      3.73s WALL (       1 calls)
     electrons    :     48.11s CPU     85.18s WALL (       1 calls)
     forces       :      1.76s CPU      2.92s WALL (       1 calls)
     stress       :      8.86s CPU     12.23s WALL (       1 calls)

     Called by init_run:
     wfcinit      :      0.14s CPU      0.15s WALL (       1 calls)
     potinit      :      0.75s CPU      0.87s WALL (       1 calls)
     hinit0       :      0.78s CPU      0.82s WALL (       1 calls)

     Called by electrons:
     c_bands      :      5.47s CPU      5.54s WALL (      18 calls)
     sum_band     :     17.29s CPU     35.08s WALL (      18 calls)
     v_of_rho     :      8.01s CPU      9.35s WALL (      19 calls)
     newd         :     12.58s CPU     31.43s WALL (      19 calls)
     PAW_pot      :      4.15s CPU      4.19s WALL (      19 calls)
     mix_rho      :      1.16s CPU      1.20s WALL (      18 calls)

     Called by c_bands:
     init_us_2    :      0.19s CPU      0.19s WALL (      37 calls)
     init_us_2:cp :      0.19s CPU      0.19s WALL (      37 calls)
     cegterg      :      5.09s CPU      5.15s WALL (      18 calls)

     Called by *egterg:
     cdiaghg      :      0.01s CPU      0.01s WALL (      53 calls)
     h_psi        :      4.76s CPU      4.82s WALL (      54 calls)
     s_psi        :      0.08s CPU      0.08s WALL (      54 calls)
     g_psi        :      0.04s CPU      0.04s WALL (      35 calls)

     Called by h_psi:
     h_psi:calbec :      0.10s CPU      0.10s WALL (      54 calls)
     vloc_psi     :      4.57s CPU      4.62s WALL (      54 calls)
     add_vuspsi   :      0.08s CPU      0.08s WALL (      54 calls)

     General routines
     calbec       :      0.14s CPU      0.14s WALL (      77 calls)
     fft          :      5.13s CPU      5.19s WALL (     270 calls)
     ffts         :      0.30s CPU      0.30s WALL (      37 calls)
     fftw         :      5.01s CPU      5.06s WALL (    1234 calls)
     interpolate  :      0.57s CPU      0.58s WALL (      19 calls)


     PWSCF        :   1m 1.45s CPU   1m44.32s WALL


   This run was terminated on:  19: 8:11  21May2025            

=------------------------------------------------------------------------------=
   JOB DONE.
=------------------------------------------------------------------------------=
