
     Program PWSCF v.7.0 starts on 21May2025 at 19:18:12 

     This program is part of the open-source Quantum ESPRESSO suite
     for quantum simulation of materials; please cite
         "P. Giannozzi et al., J. Phys.:Condens. Matter 21 395502 (2009);
         "P. Giannozzi et al., J. Phys.:Condens. Matter 29 465901 (2017);
         "P. Giannozzi et al., J. Chem. Phys. 152 154105 (2020);
          URL http://www.quantum-espresso.org", 
     in publications or presentations arising from this work. More details at
     http://www.quantum-espresso.org/quote

     Serial version
     2855 MiB available memory on the printing compute node when the environment starts

     Waiting for input...
     Reading input from standard input

     Current dimensions of program PWSCF are:
     Max number of different atomic species (ntypx) = 10
     Max number of k-points (npk) =  40000
     Max angular momentum in pseudopotentials (lmaxx) =  4
     file C.pbe-n-kjpaw_psl.1.0.0.UPF: wavefunction(s)  2S 2P renormalized

     G-vector sticks info
     --------------------
     sticks:   dense  smooth     PW     G-vecs:    dense   smooth      PW
     Sum       11449    5721   1433               922329   326029   40651

     Using Slab Decomposition



     bravais-lattice index     =            1
     lattice parameter (alat)  =      15.0000  a.u.
     unit-cell volume          =    3375.0000 (a.u.)^3
     number of atoms/cell      =            2
     number of atomic types    =            2
     number of electrons       =        15.00
     number of Kohn-Sham states=           12
     kinetic-energy cutoff     =      80.0000  Ry
     charge density cutoff     =     640.0000  Ry
     scf convergence threshold =      1.0E-06
     mixing beta               =       0.5000
     number of iterations used =            8  plain     mixing
     Exchange-correlation= SLA  PW   PBX  PBC
                           (   1   4   3   4   0   0   0)

     celldm(1)=  15.000000  celldm(2)=   0.000000  celldm(3)=   0.000000
     celldm(4)=   0.000000  celldm(5)=   0.000000  celldm(6)=   0.000000

     crystal axes: (cart. coord. in units of alat)
               a(1) = (   1.000000   0.000000   0.000000 )  
               a(2) = (   0.000000   1.000000   0.000000 )  
               a(3) = (   0.000000   0.000000   1.000000 )  

     reciprocal axes: (cart. coord. in units 2 pi/alat)
               b(1) = (  1.000000  0.000000  0.000000 )  
               b(2) = (  0.000000  1.000000  0.000000 )  
               b(3) = (  0.000000  0.000000  1.000000 )  


     PseudoPot. # 1 for Cu read from file:
     ../../QE/q-e/pseudo/Cu.pbe-kjpaw.UPF
     MD5 check sum: fe769b0ab65dca5f3352e2411ad4c6f8
     Pseudo is Projector augmented-wave + core cor, Zval = 11.0
     Generated using "atomic" code by A. Dal Corso (espresso distribution)
     Shape of augmentation charge: BESSEL
     Using radial grid of 1199 points,  6 beta functions with: 
                l(1) =   2
                l(2) =   2
                l(3) =   0
                l(4) =   0
                l(5) =   1
                l(6) =   1
     Q(r) pseudized with 0 coefficients 


     PseudoPot. # 2 for C  read from file:
     ../../QE/q-e/pseudo/C.pbe-n-kjpaw_psl.1.0.0.UPF
     MD5 check sum: 5f16ad9a65e90284d1d834d4ab3b0f7d
     Pseudo is Projector augmented-wave + core cor, Zval =  4.0
     Generated using &quot;atomic&quot; code by A. Dal Corso  v.6.3
     Shape of augmentation charge: PSQ
     Using radial grid of 1073 points,  4 beta functions with: 
                l(1) =   0
                l(2) =   0
                l(3) =   1
                l(4) =   1
     Q(r) pseudized with 0 coefficients 


     atomic species   valence    mass     pseudopotential
        Cu            11.00    63.54600     Cu( 1.00)
        C              4.00    12.01100     C ( 1.00)

      8 Sym. Ops. (no inversion) found



   Cartesian axes

     site n.     atom                  positions (alat units)
         1           C   tau(   1) = (   0.5000000   0.5000000   0.6118909  )
         2           Cu  tau(   2) = (   0.5000000   0.5000000   0.3881091  )

     number of k points=     1  Methfessel-Paxton smearing, width (Ry)=  0.0100
                       cart. coord. in units 2pi/alat
        k(    1) = (   0.0000000   0.0000000   0.0000000), wk =   2.0000000

     Dense  grid:   922329 G-vectors     FFT dimensions: ( 125, 125, 125)

     Smooth grid:   326029 G-vectors     FFT dimensions: (  90,  90,  90)

     Estimated max dynamical RAM per process >       3.32 GB

     Initial potential from superposition of free atoms

     starting charge      14.9997, renormalised to      15.0000

     negative rho (up, down):  1.980E-04 0.000E+00
     Starting wfcs are   13 randomized atomic wfcs

     total cpu time spent up to now is       10.1 secs

     Self-consistent Calculation

     iteration #  1     ecut=    80.00 Ry     beta= 0.50
     Davidson diagonalization with overlap
     ethr =  1.00E-02,  avg # of iterations =  2.0

     negative rho (up, down):  1.199E-04 0.000E+00

     total cpu time spent up to now is       23.9 secs

     total energy              =    -228.39214721 Ry
     estimated scf accuracy    <       3.17665216 Ry

     iteration #  2     ecut=    80.00 Ry     beta= 0.50
     Davidson diagonalization with overlap
     ethr =  1.00E-02,  avg # of iterations =  4.0

     negative rho (up, down):  9.199E-05 0.000E+00

     total cpu time spent up to now is       38.2 secs

     total energy              =    -230.77224826 Ry
     estimated scf accuracy    <       7.62281803 Ry

     iteration #  3     ecut=    80.00 Ry     beta= 0.50
     Davidson diagonalization with overlap
     ethr =  1.00E-02,  avg # of iterations =  2.0

     negative rho (up, down):  1.140E-04 0.000E+00

     total cpu time spent up to now is       52.2 secs

     total energy              =    -230.98686561 Ry
     estimated scf accuracy    <       1.16745291 Ry

     iteration #  4     ecut=    80.00 Ry     beta= 0.50
     Davidson diagonalization with overlap
     ethr =  7.78E-03,  avg # of iterations =  2.0

     negative rho (up, down):  1.475E-04 0.000E+00

     total cpu time spent up to now is       66.2 secs

     total energy              =    -231.00112200 Ry
     estimated scf accuracy    <       0.46800113 Ry

     iteration #  5     ecut=    80.00 Ry     beta= 0.50
     Davidson diagonalization with overlap
     ethr =  3.12E-03,  avg # of iterations =  2.0

     negative rho (up, down):  2.172E-04 0.000E+00

     total cpu time spent up to now is       80.2 secs

     total energy              =    -230.96460607 Ry
     estimated scf accuracy    <       0.22568805 Ry

     iteration #  6     ecut=    80.00 Ry     beta= 0.50
     Davidson diagonalization with overlap
     ethr =  1.50E-03,  avg # of iterations =  2.0

     negative rho (up, down):  3.075E-04 0.000E+00

     total cpu time spent up to now is       93.8 secs

     total energy              =    -230.98699527 Ry
     estimated scf accuracy    <       0.02276857 Ry

     iteration #  7     ecut=    80.00 Ry     beta= 0.50
     Davidson diagonalization with overlap
     ethr =  1.52E-04,  avg # of iterations =  7.0

     negative rho (up, down):  2.858E-04 0.000E+00

     total cpu time spent up to now is      109.2 secs

     total energy              =    -231.03809767 Ry
     estimated scf accuracy    <       0.18820230 Ry

     iteration #  8     ecut=    80.00 Ry     beta= 0.50
     Davidson diagonalization with overlap
     ethr =  1.52E-04,  avg # of iterations =  1.0

     negative rho (up, down):  2.603E-04 0.000E+00

     total cpu time spent up to now is      123.1 secs

     total energy              =    -231.01675925 Ry
     estimated scf accuracy    <       0.10264447 Ry

     iteration #  9     ecut=    80.00 Ry     beta= 0.50
     Davidson diagonalization with overlap
     ethr =  1.52E-04,  avg # of iterations =  2.0

     negative rho (up, down):  2.621E-04 0.000E+00

     total cpu time spent up to now is      137.0 secs

     total energy              =    -231.01834189 Ry
     estimated scf accuracy    <       0.01534331 Ry

     iteration # 10     ecut=    80.00 Ry     beta= 0.50
     Davidson diagonalization with overlap
     ethr =  1.02E-04,  avg # of iterations =  2.0

     negative rho (up, down):  2.695E-04 0.000E+00

     total cpu time spent up to now is      151.2 secs

     total energy              =    -231.02058823 Ry
     estimated scf accuracy    <       0.00257037 Ry

     iteration # 11     ecut=    80.00 Ry     beta= 0.50
     Davidson diagonalization with overlap
     ethr =  1.71E-05,  avg # of iterations =  5.0

     negative rho (up, down):  2.640E-04 0.000E+00

     total cpu time spent up to now is      165.3 secs

     total energy              =    -231.02069303 Ry
     estimated scf accuracy    <       0.00365410 Ry

     iteration # 12     ecut=    80.00 Ry     beta= 0.50
     Davidson diagonalization with overlap
     ethr =  1.71E-05,  avg # of iterations =  1.0

     negative rho (up, down):  2.566E-04 0.000E+00

     total cpu time spent up to now is      179.4 secs

     total energy              =    -231.02071000 Ry
     estimated scf accuracy    <       0.00075055 Ry

     iteration # 13     ecut=    80.00 Ry     beta= 0.50
     Davidson diagonalization with overlap
     ethr =  5.00E-06,  avg # of iterations =  4.0

     negative rho (up, down):  2.555E-04 0.000E+00

     total cpu time spent up to now is      193.6 secs

     total energy              =    -231.02112803 Ry
     estimated scf accuracy    <       0.00026453 Ry

     iteration # 14     ecut=    80.00 Ry     beta= 0.50
     Davidson diagonalization with overlap
     ethr =  1.76E-06,  avg # of iterations =  1.0

     negative rho (up, down):  2.566E-04 0.000E+00

     total cpu time spent up to now is      207.5 secs

     total energy              =    -231.02083712 Ry
     estimated scf accuracy    <       0.00041296 Ry

     iteration # 15     ecut=    80.00 Ry     beta= 0.50
     Davidson diagonalization with overlap
     ethr =  1.76E-06,  avg # of iterations =  2.0

     negative rho (up, down):  2.548E-04 0.000E+00

     total cpu time spent up to now is      221.3 secs

     total energy              =    -231.02086148 Ry
     estimated scf accuracy    <       0.00005506 Ry

     iteration # 16     ecut=    80.00 Ry     beta= 0.50
     Davidson diagonalization with overlap
     ethr =  3.67E-07,  avg # of iterations =  5.0

     negative rho (up, down):  2.548E-04 0.000E+00

     total cpu time spent up to now is      236.0 secs

     total energy              =    -231.02090605 Ry
     estimated scf accuracy    <       0.00000954 Ry

     iteration # 17     ecut=    80.00 Ry     beta= 0.50
     Davidson diagonalization with overlap
     ethr =  6.36E-08,  avg # of iterations =  4.0

     negative rho (up, down):  2.556E-04 0.000E+00

     total cpu time spent up to now is      250.3 secs

     total energy              =    -231.02091449 Ry
     estimated scf accuracy    <       0.00000245 Ry

     iteration # 18     ecut=    80.00 Ry     beta= 0.50
     Davidson diagonalization with overlap
     ethr =  1.64E-08,  avg # of iterations =  2.0

     negative rho (up, down):  2.557E-04 0.000E+00

     total cpu time spent up to now is      263.9 secs

     End of self-consistent calculation

          k = 0.0000 0.0000 0.0000 ( 40651 PWs)   bands (ev):

   -13.4570  -7.4592  -7.4592  -7.4280  -6.6197  -6.6193  -5.0141  -3.8169
    -3.8169  -2.4239   0.7860   0.7863

     the Fermi energy is    -3.8593 ev

!    total energy              =    -231.02091309 Ry

     total all-electron energy =     -3385.542028 Ry
     estimated scf accuracy    <       0.00000038 Ry
     smearing contrib. (-TS)   =      -0.00412614 Ry
     internal energy E=F+TS    =    -231.01678695 Ry

     The total energy is F=E-TS. E is the sum of the following terms:
     one-electron contribution =    -162.66963118 Ry
     hartree contribution      =      73.48674418 Ry
     xc contribution           =     -23.46125913 Ry
     ewald contribution        =     -15.68185141 Ry
     one-center paw contrib.   =    -102.69078941 Ry

     convergence has been achieved in  18 iterations

     negative rho (up, down):  2.557E-04 0.000E+00

     Forces acting on atoms (cartesian axes, Ry/au):

     atom    1 type  2   force =     0.00000000    0.00000000   -0.00021951
     atom    2 type  1   force =     0.00000000    0.00000000    0.00021951

     Total force =     0.000310     Total SCF correction =     0.000661
     SCF correction compared to forces is large: reduce conv_thr to get better values


     Computing stress (Cartesian axis) and pressure


     negative rho (up, down):  2.557E-04 0.000E+00
          total   stress  (Ry/bohr**3)                   (kbar)     P=        0.33
   0.00000076   0.00000000   0.00000000            0.11        0.00        0.00
   0.00000000   0.00000076   0.00000000            0.00        0.11        0.00
   0.00000000   0.00000000   0.00000514            0.00        0.00        0.76


     Writing all to output data dir Cu-C_PAW_scf_ecut_80_Ry/C-Cu_dimer.save/

     init_run     :      6.36s CPU      9.90s WALL (       1 calls)
     electrons    :    145.22s CPU    253.96s WALL (       1 calls)
     forces       :      4.88s CPU      8.23s WALL (       1 calls)
     stress       :     24.79s CPU     34.69s WALL (       1 calls)

     Called by init_run:
     wfcinit      :      0.38s CPU      0.40s WALL (       1 calls)
     potinit      :      1.87s CPU      2.23s WALL (       1 calls)
     hinit0       :      1.29s CPU      1.41s WALL (       1 calls)

     Called by electrons:
     c_bands      :     17.83s CPU     18.06s WALL (      18 calls)
     sum_band     :     57.37s CPU    109.79s WALL (      18 calls)
     v_of_rho     :     23.65s CPU     27.40s WALL (      19 calls)
     newd         :     39.65s CPU     94.91s WALL (      19 calls)
     PAW_pot      :      4.32s CPU      4.36s WALL (      19 calls)
     mix_rho      :      3.86s CPU      4.01s WALL (      18 calls)

     Called by c_bands:
     init_us_2    :      0.53s CPU      0.55s WALL (      37 calls)
     init_us_2:cp :      0.53s CPU      0.55s WALL (      37 calls)
     cegterg      :     16.73s CPU     16.95s WALL (      18 calls)

     Called by *egterg:
     cdiaghg      :      0.02s CPU      0.02s WALL (      68 calls)
     h_psi        :     15.22s CPU     15.40s WALL (      69 calls)
     s_psi        :      0.28s CPU      0.29s WALL (      69 calls)
     g_psi        :      0.15s CPU      0.15s WALL (      50 calls)

     Called by h_psi:
     h_psi:calbec :      0.32s CPU      0.32s WALL (      69 calls)
     vloc_psi     :     14.55s CPU     14.71s WALL (      69 calls)
     add_vuspsi   :      0.29s CPU      0.29s WALL (      69 calls)

     General routines
     calbec       :      0.45s CPU      0.46s WALL (      92 calls)
     fft          :     17.26s CPU     17.44s WALL (     270 calls)
     ffts         :      0.71s CPU      0.72s WALL (      37 calls)
     fftw         :     15.23s CPU     15.39s WALL (    1398 calls)
     interpolate  :      1.82s CPU      1.84s WALL (      19 calls)


     PWSCF        :   3m 1.47s CPU   5m 7.17s WALL


   This run was terminated on:  19:23:19  21May2025            

=------------------------------------------------------------------------------=
   JOB DONE.
=------------------------------------------------------------------------------=
