
     Program PWSCF v.7.0 starts on 21May2025 at 19:10:47 

     This program is part of the open-source Quantum ESPRESSO suite
     for quantum simulation of materials; please cite
         "P. Giannozzi et al., J. Phys.:Condens. Matter 21 395502 (2009);
         "P. Giannozzi et al., J. Phys.:Condens. Matter 29 465901 (2017);
         "P. Giannozzi et al., J. Chem. Phys. 152 154105 (2020);
          URL http://www.quantum-espresso.org", 
     in publications or presentations arising from this work. More details at
     http://www.quantum-espresso.org/quote

     Serial version
     2029 MiB available memory on the printing compute node when the environment starts

     Waiting for input...
     Reading input from standard input

     Current dimensions of program PWSCF are:
     Max number of different atomic species (ntypx) = 10
     Max number of k-points (npk) =  40000
     Max angular momentum in pseudopotentials (lmaxx) =  4
     file C.pbe-n-kjpaw_psl.1.0.0.UPF: wavefunction(s)  2S 2P renormalized

     G-vector sticks info
     --------------------
     sticks:   dense  smooth     PW     G-vecs:    dense   smooth      PW
     Sum        8585    4281   1085               599161   211657   26529

     Using Slab Decomposition



     bravais-lattice index     =            1
     lattice parameter (alat)  =      15.0000  a.u.
     unit-cell volume          =    3375.0000 (a.u.)^3
     number of atoms/cell      =            2
     number of atomic types    =            2
     number of electrons       =        15.00
     number of Kohn-Sham states=           12
     kinetic-energy cutoff     =      60.0000  Ry
     charge density cutoff     =     480.0000  Ry
     scf convergence threshold =      1.0E-06
     mixing beta               =       0.5000
     number of iterations used =            8  plain     mixing
     Exchange-correlation= SLA  PW   PBX  PBC
                           (   1   4   3   4   0   0   0)

     celldm(1)=  15.000000  celldm(2)=   0.000000  celldm(3)=   0.000000
     celldm(4)=   0.000000  celldm(5)=   0.000000  celldm(6)=   0.000000

     crystal axes: (cart. coord. in units of alat)
               a(1) = (   1.000000   0.000000   0.000000 )  
               a(2) = (   0.000000   1.000000   0.000000 )  
               a(3) = (   0.000000   0.000000   1.000000 )  

     reciprocal axes: (cart. coord. in units 2 pi/alat)
               b(1) = (  1.000000  0.000000  0.000000 )  
               b(2) = (  0.000000  1.000000  0.000000 )  
               b(3) = (  0.000000  0.000000  1.000000 )  


     PseudoPot. # 1 for Cu read from file:
     ../../QE/q-e/pseudo/Cu.pbe-kjpaw.UPF
     MD5 check sum: fe769b0ab65dca5f3352e2411ad4c6f8
     Pseudo is Projector augmented-wave + core cor, Zval = 11.0
     Generated using "atomic" code by A. Dal Corso (espresso distribution)
     Shape of augmentation charge: BESSEL
     Using radial grid of 1199 points,  6 beta functions with: 
                l(1) =   2
                l(2) =   2
                l(3) =   0
                l(4) =   0
                l(5) =   1
                l(6) =   1
     Q(r) pseudized with 0 coefficients 


     PseudoPot. # 2 for C  read from file:
     ../../QE/q-e/pseudo/C.pbe-n-kjpaw_psl.1.0.0.UPF
     MD5 check sum: 5f16ad9a65e90284d1d834d4ab3b0f7d
     Pseudo is Projector augmented-wave + core cor, Zval =  4.0
     Generated using &quot;atomic&quot; code by A. Dal Corso  v.6.3
     Shape of augmentation charge: PSQ
     Using radial grid of 1073 points,  4 beta functions with: 
                l(1) =   0
                l(2) =   0
                l(3) =   1
                l(4) =   1
     Q(r) pseudized with 0 coefficients 


     atomic species   valence    mass     pseudopotential
        Cu            11.00    63.54600     Cu( 1.00)
        C              4.00    12.01100     C ( 1.00)

      8 Sym. Ops. (no inversion) found



   Cartesian axes

     site n.     atom                  positions (alat units)
         1           C   tau(   1) = (   0.5000000   0.5000000   0.6118909  )
         2           Cu  tau(   2) = (   0.5000000   0.5000000   0.3881091  )

     number of k points=     1  Methfessel-Paxton smearing, width (Ry)=  0.0100
                       cart. coord. in units 2pi/alat
        k(    1) = (   0.0000000   0.0000000   0.0000000), wk =   2.0000000

     Dense  grid:   599161 G-vectors     FFT dimensions: ( 108, 108, 108)

     Smooth grid:   211657 G-vectors     FFT dimensions: (  75,  75,  75)

     Estimated max dynamical RAM per process >       2.16 GB

     Initial potential from superposition of free atoms

     starting charge      14.9997, renormalised to      15.0000

     negative rho (up, down):  3.030E-04 0.000E+00
     Starting wfcs are   13 randomized atomic wfcs

     total cpu time spent up to now is        6.7 secs

     Self-consistent Calculation

     iteration #  1     ecut=    60.00 Ry     beta= 0.50
     Davidson diagonalization with overlap
     ethr =  1.00E-02,  avg # of iterations =  2.0

     negative rho (up, down):  1.875E-04 0.000E+00

     total cpu time spent up to now is       15.4 secs

     total energy              =    -228.39069995 Ry
     estimated scf accuracy    <       3.17760107 Ry

     iteration #  2     ecut=    60.00 Ry     beta= 0.50
     Davidson diagonalization with overlap
     ethr =  1.00E-02,  avg # of iterations =  4.0

     negative rho (up, down):  1.613E-04 0.000E+00

     total cpu time spent up to now is       24.3 secs

     total energy              =    -230.76302095 Ry
     estimated scf accuracy    <       7.64528032 Ry

     iteration #  3     ecut=    60.00 Ry     beta= 0.50
     Davidson diagonalization with overlap
     ethr =  1.00E-02,  avg # of iterations =  2.0

     negative rho (up, down):  1.971E-04 0.000E+00

     total cpu time spent up to now is       33.0 secs

     total energy              =    -230.98439284 Ry
     estimated scf accuracy    <       1.16492270 Ry

     iteration #  4     ecut=    60.00 Ry     beta= 0.50
     Davidson diagonalization with overlap
     ethr =  7.77E-03,  avg # of iterations =  2.0

     negative rho (up, down):  2.388E-04 0.000E+00

     total cpu time spent up to now is       41.5 secs

     total energy              =    -231.00639730 Ry
     estimated scf accuracy    <       0.46251215 Ry

     iteration #  5     ecut=    60.00 Ry     beta= 0.50
     Davidson diagonalization with overlap
     ethr =  3.08E-03,  avg # of iterations =  2.0

     negative rho (up, down):  3.286E-04 0.000E+00

     total cpu time spent up to now is       50.2 secs

     total energy              =    -230.97774129 Ry
     estimated scf accuracy    <       0.23273070 Ry

     iteration #  6     ecut=    60.00 Ry     beta= 0.50
     Davidson diagonalization with overlap
     ethr =  1.55E-03,  avg # of iterations =  2.0

     negative rho (up, down):  4.607E-04 0.000E+00

     total cpu time spent up to now is       59.1 secs

     total energy              =    -230.97819169 Ry
     estimated scf accuracy    <       0.04881584 Ry

     iteration #  7     ecut=    60.00 Ry     beta= 0.50
     Davidson diagonalization with overlap
     ethr =  3.25E-04,  avg # of iterations =  5.0

     negative rho (up, down):  4.366E-04 0.000E+00

     total cpu time spent up to now is       68.2 secs

     total energy              =    -231.03630401 Ry
     estimated scf accuracy    <       0.16793473 Ry

     iteration #  8     ecut=    60.00 Ry     beta= 0.50
     Davidson diagonalization with overlap
     ethr =  3.25E-04,  avg # of iterations =  1.0

     negative rho (up, down):  3.933E-04 0.000E+00

     total cpu time spent up to now is       76.5 secs

     total energy              =    -231.01011879 Ry
     estimated scf accuracy    <       0.09446911 Ry

     iteration #  9     ecut=    60.00 Ry     beta= 0.50
     Davidson diagonalization with overlap
     ethr =  3.25E-04,  avg # of iterations =  1.0

     negative rho (up, down):  4.139E-04 0.000E+00

     total cpu time spent up to now is       85.1 secs

     total energy              =    -231.01993044 Ry
     estimated scf accuracy    <       0.00442819 Ry

     iteration # 10     ecut=    60.00 Ry     beta= 0.50
     Davidson diagonalization with overlap
     ethr =  2.95E-05,  avg # of iterations =  4.0

     negative rho (up, down):  4.032E-04 0.000E+00

     total cpu time spent up to now is       93.8 secs

     total energy              =    -231.01825932 Ry
     estimated scf accuracy    <       0.00437159 Ry

     iteration # 11     ecut=    60.00 Ry     beta= 0.50
     Davidson diagonalization with overlap
     ethr =  2.91E-05,  avg # of iterations =  4.0

     negative rho (up, down):  4.099E-04 0.000E+00

     total cpu time spent up to now is      102.6 secs

     total energy              =    -231.02037889 Ry
     estimated scf accuracy    <       0.00123020 Ry

     iteration # 12     ecut=    60.00 Ry     beta= 0.50
     Davidson diagonalization with overlap
     ethr =  8.20E-06,  avg # of iterations =  1.0

     negative rho (up, down):  4.071E-04 0.000E+00

     total cpu time spent up to now is      110.9 secs

     total energy              =    -231.02065034 Ry
     estimated scf accuracy    <       0.00003447 Ry

     iteration # 13     ecut=    60.00 Ry     beta= 0.50
     Davidson diagonalization with overlap
     ethr =  2.30E-07,  avg # of iterations =  5.0

     negative rho (up, down):  3.980E-04 0.000E+00

     total cpu time spent up to now is      119.7 secs

     total energy              =    -231.02067932 Ry
     estimated scf accuracy    <       0.00003706 Ry

     iteration # 14     ecut=    60.00 Ry     beta= 0.50
     Davidson diagonalization with overlap
     ethr =  2.30E-07,  avg # of iterations =  2.0

     negative rho (up, down):  3.964E-04 0.000E+00

     total cpu time spent up to now is      128.3 secs

     total energy              =    -231.02068305 Ry
     estimated scf accuracy    <       0.00008653 Ry

     iteration # 15     ecut=    60.00 Ry     beta= 0.50
     Davidson diagonalization with overlap
     ethr =  2.30E-07,  avg # of iterations =  1.0

     negative rho (up, down):  3.956E-04 0.000E+00

     total cpu time spent up to now is      137.0 secs

     total energy              =    -231.02065945 Ry
     estimated scf accuracy    <       0.00006563 Ry

     iteration # 16     ecut=    60.00 Ry     beta= 0.50
     Davidson diagonalization with overlap
     ethr =  2.30E-07,  avg # of iterations =  2.0

     negative rho (up, down):  3.948E-04 0.000E+00

     total cpu time spent up to now is      145.6 secs

     total energy              =    -231.02065806 Ry
     estimated scf accuracy    <       0.00001552 Ry

     iteration # 17     ecut=    60.00 Ry     beta= 0.50
     Davidson diagonalization with overlap
     ethr =  1.03E-07,  avg # of iterations =  4.0

     negative rho (up, down):  3.949E-04 0.000E+00

     total cpu time spent up to now is      154.3 secs

     End of self-consistent calculation

          k = 0.0000 0.0000 0.0000 ( 26529 PWs)   bands (ev):

   -13.4587  -7.4565  -7.4565  -7.4256  -6.6157  -6.6153  -5.0153  -3.8162
    -3.8162  -2.4256   0.7843   0.7844

     the Fermi energy is    -3.8586 ev

!    total energy              =    -231.02066415 Ry

     total all-electron energy =     -3385.541779 Ry
     estimated scf accuracy    <       0.00000003 Ry
     smearing contrib. (-TS)   =      -0.00412614 Ry
     internal energy E=F+TS    =    -231.01653801 Ry

     The total energy is F=E-TS. E is the sum of the following terms:
     one-electron contribution =    -162.65739595 Ry
     hartree contribution      =      73.47622519 Ry
     xc contribution           =     -23.45939419 Ry
     ewald contribution        =     -15.68185141 Ry
     one-center paw contrib.   =    -102.69412165 Ry

     convergence has been achieved in  17 iterations

     negative rho (up, down):  3.949E-04 0.000E+00

     Forces acting on atoms (cartesian axes, Ry/au):

     atom    1 type  2   force =     0.00000000    0.00000000   -0.00081720
     atom    2 type  1   force =     0.00000000    0.00000000    0.00081720

     Total force =     0.001156     Total SCF correction =     0.000180
     SCF correction compared to forces is large: reduce conv_thr to get better values


     Computing stress (Cartesian axis) and pressure


     negative rho (up, down):  3.949E-04 0.000E+00
          total   stress  (Ry/bohr**3)                   (kbar)     P=        0.16
  -0.00000024   0.00000000   0.00000000           -0.04        0.00        0.00
   0.00000000  -0.00000024   0.00000000            0.00       -0.04        0.00
   0.00000000   0.00000000   0.00000366            0.00        0.00        0.54


     Writing all to output data dir Cu-C_PAW_scf_ecut_60_Ry/C-Cu_dimer.save/

     init_run     :      4.21s CPU      6.52s WALL (       1 calls)
     electrons    :     82.14s CPU    147.64s WALL (       1 calls)
     forces       :      3.09s CPU      5.12s WALL (       1 calls)
     stress       :     15.76s CPU     21.90s WALL (       1 calls)

     Called by init_run:
     wfcinit      :      0.23s CPU      0.24s WALL (       1 calls)
     potinit      :      1.13s CPU      1.37s WALL (       1 calls)
     hinit0       :      1.03s CPU      1.10s WALL (       1 calls)

     Called by electrons:
     c_bands      :      9.35s CPU      9.47s WALL (      17 calls)
     sum_band     :     31.43s CPU     63.07s WALL (      17 calls)
     v_of_rho     :     12.92s CPU     15.13s WALL (      18 calls)
     newd         :     23.65s CPU     57.10s WALL (      18 calls)
     PAW_pot      :      4.01s CPU      4.05s WALL (      18 calls)
     mix_rho      :      1.94s CPU      2.02s WALL (      17 calls)

     Called by c_bands:
     init_us_2    :      0.33s CPU      0.34s WALL (      35 calls)
     init_us_2:cp :      0.33s CPU      0.34s WALL (      35 calls)
     cegterg      :      8.67s CPU      8.78s WALL (      17 calls)

     Called by *egterg:
     cdiaghg      :      0.01s CPU      0.01s WALL (      61 calls)
     h_psi        :      7.83s CPU      7.92s WALL (      62 calls)
     s_psi        :      0.17s CPU      0.17s WALL (      62 calls)
     g_psi        :      0.09s CPU      0.09s WALL (      44 calls)

     Called by h_psi:
     h_psi:calbec :      0.20s CPU      0.20s WALL (      62 calls)
     vloc_psi     :      7.42s CPU      7.51s WALL (      62 calls)
     add_vuspsi   :      0.17s CPU      0.18s WALL (      62 calls)

     General routines
     calbec       :      0.29s CPU      0.29s WALL (      84 calls)
     fft          :      8.00s CPU      8.10s WALL (     257 calls)
     ffts         :      0.36s CPU      0.36s WALL (      35 calls)
     fftw         :      7.88s CPU      7.97s WALL (    1310 calls)
     interpolate  :      0.89s CPU      0.90s WALL (      18 calls)


     PWSCF        :   1m45.40s CPU   3m 1.49s WALL


   This run was terminated on:  19:13:49  21May2025            

=------------------------------------------------------------------------------=
   JOB DONE.
=------------------------------------------------------------------------------=
