
     Program PWSCF v.7.0 starts on 21May2025 at 19: 4:38 

     This program is part of the open-source Quantum ESPRESSO suite
     for quantum simulation of materials; please cite
         "P. Giannozzi et al., J. Phys.:Condens. Matter 21 395502 (2009);
         "P. Giannozzi et al., J. Phys.:Condens. Matter 29 465901 (2017);
         "P. Giannozzi et al., J. Chem. Phys. 152 154105 (2020);
          URL http://www.quantum-espresso.org", 
     in publications or presentations arising from this work. More details at
     http://www.quantum-espresso.org/quote

     Serial version
     618 MiB available memory on the printing compute node when the environment starts

     Waiting for input...
     Reading input from standard input

     Current dimensions of program PWSCF are:
     Max number of different atomic species (ntypx) = 10
     Max number of k-points (npk) =  40000
     Max angular momentum in pseudopotentials (lmaxx) =  4
     file C.pbe-n-kjpaw_psl.1.0.0.UPF: wavefunction(s)  2S 2P renormalized

     G-vector sticks info
     --------------------
     sticks:   dense  smooth     PW     G-vecs:    dense   smooth      PW
     Sum        1433     717    177                40651    14363    1791

     Using Slab Decomposition



     bravais-lattice index     =            1
     lattice parameter (alat)  =      15.0000  a.u.
     unit-cell volume          =    3375.0000 (a.u.)^3
     number of atoms/cell      =            2
     number of atomic types    =            2
     number of electrons       =        15.00
     number of Kohn-Sham states=           12
     kinetic-energy cutoff     =      10.0000  Ry
     charge density cutoff     =      80.0000  Ry
     scf convergence threshold =      1.0E-06
     mixing beta               =       0.5000
     number of iterations used =            8  plain     mixing
     Exchange-correlation= SLA  PW   PBX  PBC
                           (   1   4   3   4   0   0   0)

     celldm(1)=  15.000000  celldm(2)=   0.000000  celldm(3)=   0.000000
     celldm(4)=   0.000000  celldm(5)=   0.000000  celldm(6)=   0.000000

     crystal axes: (cart. coord. in units of alat)
               a(1) = (   1.000000   0.000000   0.000000 )  
               a(2) = (   0.000000   1.000000   0.000000 )  
               a(3) = (   0.000000   0.000000   1.000000 )  

     reciprocal axes: (cart. coord. in units 2 pi/alat)
               b(1) = (  1.000000  0.000000  0.000000 )  
               b(2) = (  0.000000  1.000000  0.000000 )  
               b(3) = (  0.000000  0.000000  1.000000 )  


     PseudoPot. # 1 for Cu read from file:
     ../../QE/q-e/pseudo/Cu.pbe-kjpaw.UPF
     MD5 check sum: fe769b0ab65dca5f3352e2411ad4c6f8
     Pseudo is Projector augmented-wave + core cor, Zval = 11.0
     Generated using "atomic" code by A. Dal Corso (espresso distribution)
     Shape of augmentation charge: BESSEL
     Using radial grid of 1199 points,  6 beta functions with: 
                l(1) =   2
                l(2) =   2
                l(3) =   0
                l(4) =   0
                l(5) =   1
                l(6) =   1
     Q(r) pseudized with 0 coefficients 


     PseudoPot. # 2 for C  read from file:
     ../../QE/q-e/pseudo/C.pbe-n-kjpaw_psl.1.0.0.UPF
     MD5 check sum: 5f16ad9a65e90284d1d834d4ab3b0f7d
     Pseudo is Projector augmented-wave + core cor, Zval =  4.0
     Generated using &quot;atomic&quot; code by A. Dal Corso  v.6.3
     Shape of augmentation charge: PSQ
     Using radial grid of 1073 points,  4 beta functions with: 
                l(1) =   0
                l(2) =   0
                l(3) =   1
                l(4) =   1
     Q(r) pseudized with 0 coefficients 


     atomic species   valence    mass     pseudopotential
        Cu            11.00    63.54600     Cu( 1.00)
        C              4.00    12.01100     C ( 1.00)

      8 Sym. Ops. (no inversion) found



   Cartesian axes

     site n.     atom                  positions (alat units)
         1           C   tau(   1) = (   0.5000000   0.5000000   0.6118909  )
         2           Cu  tau(   2) = (   0.5000000   0.5000000   0.3881091  )

     number of k points=     1  Methfessel-Paxton smearing, width (Ry)=  0.0100
                       cart. coord. in units 2pi/alat
        k(    1) = (   0.0000000   0.0000000   0.0000000), wk =   2.0000000

     Dense  grid:    40651 G-vectors     FFT dimensions: (  45,  45,  45)

     Smooth grid:    14363 G-vectors     FFT dimensions: (  32,  32,  32)

     Estimated max dynamical RAM per process >     151.36 MB

     Check: negative core charge=   -0.000217

     Initial potential from superposition of free atoms

     starting charge      14.9997, renormalised to      15.0000

     negative rho (up, down):  8.977E-03 0.000E+00
     Starting wfcs are   13 randomized atomic wfcs

     total cpu time spent up to now is        1.1 secs

     Self-consistent Calculation

     iteration #  1     ecut=    10.00 Ry     beta= 0.50
     Davidson diagonalization with overlap
     ethr =  1.00E-02,  avg # of iterations =  3.0

     negative rho (up, down):  3.105E-03 0.000E+00

     total cpu time spent up to now is        1.9 secs

     total energy              =    -226.65541610 Ry
     estimated scf accuracy    <       2.91729117 Ry

     iteration #  2     ecut=    10.00 Ry     beta= 0.50
     Davidson diagonalization with overlap
     ethr =  1.00E-02,  avg # of iterations =  2.0

     negative rho (up, down):  7.720E-03 0.000E+00

     total cpu time spent up to now is        2.6 secs

     total energy              =    -229.23561871 Ry
     estimated scf accuracy    <       3.78551306 Ry

     iteration #  3     ecut=    10.00 Ry     beta= 0.50
     Davidson diagonalization with overlap
     ethr =  1.00E-02,  avg # of iterations =  2.0

     negative rho (up, down):  8.860E-03 0.000E+00

     total cpu time spent up to now is        3.2 secs

     total energy              =    -229.49118813 Ry
     estimated scf accuracy    <       0.39435582 Ry

     iteration #  4     ecut=    10.00 Ry     beta= 0.50
     Davidson diagonalization with overlap
     ethr =  2.63E-03,  avg # of iterations =  1.0

     negative rho (up, down):  1.227E-02 0.000E+00

     total cpu time spent up to now is        3.9 secs

     total energy              =    -229.36857320 Ry
     estimated scf accuracy    <       0.17879211 Ry

     iteration #  5     ecut=    10.00 Ry     beta= 0.50
     Davidson diagonalization with overlap
     ethr =  1.19E-03,  avg # of iterations =  2.0

     negative rho (up, down):  1.126E-02 0.000E+00

     total cpu time spent up to now is        4.6 secs

     total energy              =    -229.42643037 Ry
     estimated scf accuracy    <       0.00812628 Ry

     iteration #  6     ecut=    10.00 Ry     beta= 0.50
     Davidson diagonalization with overlap
     ethr =  5.42E-05,  avg # of iterations =  7.0

     negative rho (up, down):  9.474E-03 0.000E+00

     total cpu time spent up to now is        5.3 secs

     total energy              =    -229.42282886 Ry
     estimated scf accuracy    <       0.00382953 Ry

     iteration #  7     ecut=    10.00 Ry     beta= 0.50
     Davidson diagonalization with overlap
     ethr =  2.55E-05,  avg # of iterations =  2.0

     negative rho (up, down):  9.841E-03 0.000E+00

     total cpu time spent up to now is        6.1 secs

     total energy              =    -229.42484748 Ry
     estimated scf accuracy    <       0.00163917 Ry

     iteration #  8     ecut=    10.00 Ry     beta= 0.50
     Davidson diagonalization with overlap
     ethr =  1.09E-05,  avg # of iterations =  2.0

     negative rho (up, down):  9.888E-03 0.000E+00

     total cpu time spent up to now is        6.8 secs

     total energy              =    -229.42520159 Ry
     estimated scf accuracy    <       0.00002647 Ry

     iteration #  9     ecut=    10.00 Ry     beta= 0.50
     Davidson diagonalization with overlap
     ethr =  1.76E-07,  avg # of iterations =  4.0

     negative rho (up, down):  9.858E-03 0.000E+00

     total cpu time spent up to now is        7.5 secs

     End of self-consistent calculation

          k = 0.0000 0.0000 0.0000 (  1791 PWs)   bands (ev):

   -16.3589 -11.2795 -11.2795 -10.8350 -10.6227 -10.5772  -5.6267  -4.0642
    -4.0642  -2.8455  -1.2808   0.2260

     the Fermi energy is    -4.1066 ev

!    total energy              =    -229.42521503 Ry

     total all-electron energy =     -3383.946330 Ry
     estimated scf accuracy    <       0.00000055 Ry
     smearing contrib. (-TS)   =      -0.00412614 Ry
     internal energy E=F+TS    =    -229.42108889 Ry

     The total energy is F=E-TS. E is the sum of the following terms:
     one-electron contribution =    -157.29280103 Ry
     hartree contribution      =      71.78819412 Ry
     xc contribution           =     -23.01287937 Ry
     ewald contribution        =     -15.68185145 Ry
     one-center paw contrib.   =    -105.22175116 Ry

     convergence has been achieved in   9 iterations

     negative rho (up, down):  9.858E-03 0.000E+00

     Forces acting on atoms (cartesian axes, Ry/au):

     atom    1 type  2   force =     0.00000000    0.00000000    0.07377819
     atom    2 type  1   force =     0.00000000    0.00000000   -0.07377819

     Total force =     0.104338     Total SCF correction =     0.000230


     Computing stress (Cartesian axis) and pressure


     negative rho (up, down):  9.858E-03 0.000E+00
          total   stress  (Ry/bohr**3)                   (kbar)     P=     -146.11
  -0.00102417   0.00000000   0.00000000         -150.66        0.00        0.00
   0.00000000  -0.00102417   0.00000000            0.00     -150.66        0.00
   0.00000000   0.00000000  -0.00093138            0.00        0.00     -137.01


     Writing all to output data dir Cu-C_PAW_scf_ecut_10_Ry/C-Cu_dimer.save/

     init_run     :      0.74s CPU      0.91s WALL (       1 calls)
     electrons    :      4.61s CPU      6.42s WALL (       1 calls)
     forces       :      0.22s CPU      0.31s WALL (       1 calls)
     stress       :      1.13s CPU      1.44s WALL (       1 calls)

     Called by init_run:
     wfcinit      :      0.01s CPU      0.01s WALL (       1 calls)
     potinit      :      0.28s CPU      0.32s WALL (       1 calls)
     hinit0       :      0.33s CPU      0.34s WALL (       1 calls)

     Called by electrons:
     c_bands      :      0.29s CPU      0.30s WALL (       9 calls)
     sum_band     :      1.08s CPU      1.98s WALL (       9 calls)
     v_of_rho     :      0.50s CPU      0.51s WALL (      10 calls)
     newd         :      0.78s CPU      1.79s WALL (      10 calls)
     PAW_pot      :      2.21s CPU      2.24s WALL (      10 calls)
     mix_rho      :      0.05s CPU      0.05s WALL (       9 calls)

     Called by c_bands:
     init_us_2    :      0.01s CPU      0.01s WALL (      19 calls)
     init_us_2:cp :      0.01s CPU      0.01s WALL (      19 calls)
     cegterg      :      0.27s CPU      0.27s WALL (       9 calls)

     Called by *egterg:
     cdiaghg      :      0.01s CPU      0.01s WALL (      34 calls)
     h_psi        :      0.24s CPU      0.24s WALL (      35 calls)
     s_psi        :      0.01s CPU      0.01s WALL (      35 calls)
     g_psi        :      0.00s CPU      0.00s WALL (      25 calls)

     Called by h_psi:
     h_psi:calbec :      0.01s CPU      0.01s WALL (      35 calls)
     vloc_psi     :      0.23s CPU      0.23s WALL (      35 calls)
     add_vuspsi   :      0.01s CPU      0.01s WALL (      35 calls)

     General routines
     calbec       :      0.01s CPU      0.01s WALL (      49 calls)
     fft          :      0.32s CPU      0.32s WALL (     153 calls)
     ffts         :      0.01s CPU      0.01s WALL (      19 calls)
     fftw         :      0.23s CPU      0.23s WALL (     724 calls)
     interpolate  :      0.03s CPU      0.03s WALL (      10 calls)


     PWSCF        :      6.87s CPU      9.29s WALL


   This run was terminated on:  19: 4:47  21May2025            

=------------------------------------------------------------------------------=
   JOB DONE.
=------------------------------------------------------------------------------=
