
     Program PWSCF v.7.0 starts on 21May2025 at 19: 5:17 

     This program is part of the open-source Quantum ESPRESSO suite
     for quantum simulation of materials; please cite
         "P. Giannozzi et al., J. Phys.:Condens. Matter 21 395502 (2009);
         "P. Giannozzi et al., J. Phys.:Condens. Matter 29 465901 (2017);
         "P. Giannozzi et al., J. Chem. Phys. 152 154105 (2020);
          URL http://www.quantum-espresso.org", 
     in publications or presentations arising from this work. More details at
     http://www.quantum-espresso.org/quote

     Serial version
     890 MiB available memory on the printing compute node when the environment starts

     Waiting for input...
     Reading input from standard input

     Current dimensions of program PWSCF are:
     Max number of different atomic species (ntypx) = 10
     Max number of k-points (npk) =  40000
     Max angular momentum in pseudopotentials (lmaxx) =  4
     file C.pbe-n-kjpaw_psl.1.0.0.UPF: wavefunction(s)  2S 2P renormalized

     G-vector sticks info
     --------------------
     sticks:   dense  smooth     PW     G-vecs:    dense   smooth      PW
     Sum        4281    2145    545               211657    74773    9315

     Using Slab Decomposition



     bravais-lattice index     =            1
     lattice parameter (alat)  =      15.0000  a.u.
     unit-cell volume          =    3375.0000 (a.u.)^3
     number of atoms/cell      =            2
     number of atomic types    =            2
     number of electrons       =        15.00
     number of Kohn-Sham states=           12
     kinetic-energy cutoff     =      30.0000  Ry
     charge density cutoff     =     240.0000  Ry
     scf convergence threshold =      1.0E-06
     mixing beta               =       0.5000
     number of iterations used =            8  plain     mixing
     Exchange-correlation= SLA  PW   PBX  PBC
                           (   1   4   3   4   0   0   0)

     celldm(1)=  15.000000  celldm(2)=   0.000000  celldm(3)=   0.000000
     celldm(4)=   0.000000  celldm(5)=   0.000000  celldm(6)=   0.000000

     crystal axes: (cart. coord. in units of alat)
               a(1) = (   1.000000   0.000000   0.000000 )  
               a(2) = (   0.000000   1.000000   0.000000 )  
               a(3) = (   0.000000   0.000000   1.000000 )  

     reciprocal axes: (cart. coord. in units 2 pi/alat)
               b(1) = (  1.000000  0.000000  0.000000 )  
               b(2) = (  0.000000  1.000000  0.000000 )  
               b(3) = (  0.000000  0.000000  1.000000 )  


     PseudoPot. # 1 for Cu read from file:
     ../../QE/q-e/pseudo/Cu.pbe-kjpaw.UPF
     MD5 check sum: fe769b0ab65dca5f3352e2411ad4c6f8
     Pseudo is Projector augmented-wave + core cor, Zval = 11.0
     Generated using "atomic" code by A. Dal Corso (espresso distribution)
     Shape of augmentation charge: BESSEL
     Using radial grid of 1199 points,  6 beta functions with: 
                l(1) =   2
                l(2) =   2
                l(3) =   0
                l(4) =   0
                l(5) =   1
                l(6) =   1
     Q(r) pseudized with 0 coefficients 


     PseudoPot. # 2 for C  read from file:
     ../../QE/q-e/pseudo/C.pbe-n-kjpaw_psl.1.0.0.UPF
     MD5 check sum: 5f16ad9a65e90284d1d834d4ab3b0f7d
     Pseudo is Projector augmented-wave + core cor, Zval =  4.0
     Generated using &quot;atomic&quot; code by A. Dal Corso  v.6.3
     Shape of augmentation charge: PSQ
     Using radial grid of 1073 points,  4 beta functions with: 
                l(1) =   0
                l(2) =   0
                l(3) =   1
                l(4) =   1
     Q(r) pseudized with 0 coefficients 


     atomic species   valence    mass     pseudopotential
        Cu            11.00    63.54600     Cu( 1.00)
        C              4.00    12.01100     C ( 1.00)

      8 Sym. Ops. (no inversion) found



   Cartesian axes

     site n.     atom                  positions (alat units)
         1           C   tau(   1) = (   0.5000000   0.5000000   0.6118909  )
         2           Cu  tau(   2) = (   0.5000000   0.5000000   0.3881091  )

     number of k points=     1  Methfessel-Paxton smearing, width (Ry)=  0.0100
                       cart. coord. in units 2pi/alat
        k(    1) = (   0.0000000   0.0000000   0.0000000), wk =   2.0000000

     Dense  grid:   211657 G-vectors     FFT dimensions: (  75,  75,  75)

     Smooth grid:    74773 G-vectors     FFT dimensions: (  54,  54,  54)

     Estimated max dynamical RAM per process >     779.46 MB

     Check: negative core charge=   -0.000004

     Initial potential from superposition of free atoms

     starting charge      14.9997, renormalised to      15.0000

     negative rho (up, down):  1.461E-03 0.000E+00
     Starting wfcs are   13 randomized atomic wfcs

     total cpu time spent up to now is        2.8 secs

     Self-consistent Calculation

     iteration #  1     ecut=    30.00 Ry     beta= 0.50
     Davidson diagonalization with overlap
     ethr =  1.00E-02,  avg # of iterations =  2.0

     negative rho (up, down):  1.163E-03 0.000E+00

     total cpu time spent up to now is        5.8 secs

     total energy              =    -228.43497954 Ry
     estimated scf accuracy    <       3.11426416 Ry

     iteration #  2     ecut=    30.00 Ry     beta= 0.50
     Davidson diagonalization with overlap
     ethr =  1.00E-02,  avg # of iterations =  3.0

     negative rho (up, down):  2.011E-03 0.000E+00

     total cpu time spent up to now is        8.8 secs

     total energy              =    -230.86975209 Ry
     estimated scf accuracy    <       7.33822315 Ry

     iteration #  3     ecut=    30.00 Ry     beta= 0.50
     Davidson diagonalization with overlap
     ethr =  1.00E-02,  avg # of iterations =  2.0

     negative rho (up, down):  2.165E-03 0.000E+00

     total cpu time spent up to now is       11.8 secs

     total energy              =    -231.04938851 Ry
     estimated scf accuracy    <       1.08614892 Ry

     iteration #  4     ecut=    30.00 Ry     beta= 0.50
     Davidson diagonalization with overlap
     ethr =  7.24E-03,  avg # of iterations =  1.0

     negative rho (up, down):  2.130E-03 0.000E+00

     total cpu time spent up to now is       14.7 secs

     total energy              =    -230.99869689 Ry
     estimated scf accuracy    <       0.43655738 Ry

     iteration #  5     ecut=    30.00 Ry     beta= 0.50
     Davidson diagonalization with overlap
     ethr =  2.91E-03,  avg # of iterations =  2.0

     negative rho (up, down):  2.010E-03 0.000E+00

     total cpu time spent up to now is       17.6 secs

     total energy              =    -231.01188705 Ry
     estimated scf accuracy    <       0.19081265 Ry

     iteration #  6     ecut=    30.00 Ry     beta= 0.50
     Davidson diagonalization with overlap
     ethr =  1.27E-03,  avg # of iterations =  1.0

     negative rho (up, down):  2.073E-03 0.000E+00

     total cpu time spent up to now is       20.5 secs

     total energy              =    -230.97457727 Ry
     estimated scf accuracy    <       0.12101949 Ry

     iteration #  7     ecut=    30.00 Ry     beta= 0.50
     Davidson diagonalization with overlap
     ethr =  8.07E-04,  avg # of iterations =  2.0

     negative rho (up, down):  2.057E-03 0.000E+00

     total cpu time spent up to now is       23.4 secs

     total energy              =    -231.00695774 Ry
     estimated scf accuracy    <       0.00141722 Ry

     iteration #  8     ecut=    30.00 Ry     beta= 0.50
     Davidson diagonalization with overlap
     ethr =  9.45E-06,  avg # of iterations =  7.0

     negative rho (up, down):  1.970E-03 0.000E+00

     total cpu time spent up to now is       26.7 secs

     total energy              =    -231.01701401 Ry
     estimated scf accuracy    <       0.05931774 Ry

     iteration #  9     ecut=    30.00 Ry     beta= 0.50
     Davidson diagonalization with overlap
     ethr =  9.45E-06,  avg # of iterations =  1.0

     negative rho (up, down):  1.905E-03 0.000E+00

     total cpu time spent up to now is       29.6 secs

     total energy              =    -231.00614383 Ry
     estimated scf accuracy    <       0.05251379 Ry

     iteration # 10     ecut=    30.00 Ry     beta= 0.50
     Davidson diagonalization with overlap
     ethr =  9.45E-06,  avg # of iterations =  4.0

     negative rho (up, down):  1.841E-03 0.000E+00

     total cpu time spent up to now is       32.7 secs

     total energy              =    -231.00731180 Ry
     estimated scf accuracy    <       0.00876056 Ry

     iteration # 11     ecut=    30.00 Ry     beta= 0.50
     Davidson diagonalization with overlap
     ethr =  9.45E-06,  avg # of iterations =  2.0

     negative rho (up, down):  1.889E-03 0.000E+00

     total cpu time spent up to now is       35.7 secs

     total energy              =    -231.00879492 Ry
     estimated scf accuracy    <       0.00181083 Ry

     iteration # 12     ecut=    30.00 Ry     beta= 0.50
     Davidson diagonalization with overlap
     ethr =  9.45E-06,  avg # of iterations =  1.0

     negative rho (up, down):  1.844E-03 0.000E+00

     total cpu time spent up to now is       38.6 secs

     total energy              =    -231.00721095 Ry
     estimated scf accuracy    <       0.01029551 Ry

     iteration # 13     ecut=    30.00 Ry     beta= 0.50
     Davidson diagonalization with overlap
     ethr =  9.45E-06,  avg # of iterations =  2.0

     negative rho (up, down):  1.809E-03 0.000E+00

     total cpu time spent up to now is       41.6 secs

     total energy              =    -231.00697235 Ry
     estimated scf accuracy    <       0.00231530 Ry

     iteration # 14     ecut=    30.00 Ry     beta= 0.50
     Davidson diagonalization with overlap
     ethr =  9.45E-06,  avg # of iterations =  2.0

     negative rho (up, down):  1.813E-03 0.000E+00

     total cpu time spent up to now is       44.8 secs

     total energy              =    -231.00747471 Ry
     estimated scf accuracy    <       0.00001495 Ry

     iteration # 15     ecut=    30.00 Ry     beta= 0.50
     Davidson diagonalization with overlap
     ethr =  9.97E-08,  avg # of iterations = 11.0

     negative rho (up, down):  1.819E-03 0.000E+00

     total cpu time spent up to now is       48.1 secs

     total energy              =    -231.00747886 Ry
     estimated scf accuracy    <       0.00002844 Ry

     iteration # 16     ecut=    30.00 Ry     beta= 0.50
     Davidson diagonalization with overlap
     ethr =  9.97E-08,  avg # of iterations =  2.0

     negative rho (up, down):  1.828E-03 0.000E+00

     total cpu time spent up to now is       51.2 secs

     total energy              =    -231.00746817 Ry
     estimated scf accuracy    <       0.00001161 Ry

     iteration # 17     ecut=    30.00 Ry     beta= 0.50
     Davidson diagonalization with overlap
     ethr =  7.74E-08,  avg # of iterations =  4.0

     negative rho (up, down):  1.831E-03 0.000E+00

     total cpu time spent up to now is       54.4 secs

     total energy              =    -231.00747777 Ry
     estimated scf accuracy    <       0.00000165 Ry

     iteration # 18     ecut=    30.00 Ry     beta= 0.50
     Davidson diagonalization with overlap
     ethr =  1.10E-08,  avg # of iterations =  4.0

     negative rho (up, down):  1.832E-03 0.000E+00

     total cpu time spent up to now is       57.4 secs

     total energy              =    -231.00747845 Ry
     estimated scf accuracy    <       0.00000100 Ry

     iteration # 19     ecut=    30.00 Ry     beta= 0.50
     Davidson diagonalization with overlap
     ethr =  6.68E-09,  avg # of iterations =  1.0

     negative rho (up, down):  1.832E-03 0.000E+00

     total cpu time spent up to now is       60.2 secs

     End of self-consistent calculation

          k = 0.0000 0.0000 0.0000 (  9315 PWs)   bands (ev):

   -13.4850  -7.4547  -7.4547  -7.4298  -6.6017  -6.6013  -5.0217  -3.8094
    -3.8094  -2.4238   0.2376   0.7760

     the Fermi energy is    -3.8518 ev

!    total energy              =    -231.00747824 Ry

     total all-electron energy =     -3385.528593 Ry
     estimated scf accuracy    <       0.00000029 Ry
     smearing contrib. (-TS)   =      -0.00412614 Ry
     internal energy E=F+TS    =    -231.00335210 Ry

     The total energy is F=E-TS. E is the sum of the following terms:
     one-electron contribution =    -162.62278606 Ry
     hartree contribution      =      73.42012585 Ry
     xc contribution           =     -23.45007507 Ry
     ewald contribution        =     -15.68185143 Ry
     one-center paw contrib.   =    -102.66876539 Ry

     convergence has been achieved in  19 iterations

     negative rho (up, down):  1.832E-03 0.000E+00

     Forces acting on atoms (cartesian axes, Ry/au):

     atom    1 type  2   force =     0.00000000    0.00000000    0.00871739
     atom    2 type  1   force =     0.00000000    0.00000000   -0.00871739

     Total force =     0.012328     Total SCF correction =     0.000659


     Computing stress (Cartesian axis) and pressure


     negative rho (up, down):  1.832E-03 0.000E+00
          total   stress  (Ry/bohr**3)                   (kbar)     P=       -2.03
  -0.00001687   0.00000000   0.00000000           -2.48        0.00        0.00
   0.00000000  -0.00001687   0.00000000            0.00       -2.48        0.00
   0.00000000   0.00000000  -0.00000755            0.00        0.00       -1.11


     Writing all to output data dir Cu-C_PAW_scf_ecut_30_Ry/C-Cu_dimer.save/

     init_run     :      1.79s CPU      2.59s WALL (       1 calls)
     electrons    :     32.27s CPU     57.47s WALL (       1 calls)
     forces       :      0.97s CPU      1.66s WALL (       1 calls)
     stress       :      5.60s CPU      7.70s WALL (       1 calls)

     Called by init_run:
     wfcinit      :      0.08s CPU      0.09s WALL (       1 calls)
     potinit      :      0.51s CPU      0.59s WALL (       1 calls)
     hinit0       :      0.64s CPU      0.66s WALL (       1 calls)

     Called by electrons:
     c_bands      :      3.71s CPU      3.76s WALL (      19 calls)
     sum_band     :     11.34s CPU     23.50s WALL (      19 calls)
     v_of_rho     :      4.66s CPU      5.44s WALL (      20 calls)
     newd         :      8.04s CPU     20.90s WALL (      20 calls)
     PAW_pot      :      4.32s CPU      4.36s WALL (      20 calls)
     mix_rho      :      0.66s CPU      0.70s WALL (      19 calls)

     Called by c_bands:
     init_us_2    :      0.13s CPU      0.13s WALL (      39 calls)
     init_us_2:cp :      0.13s CPU      0.13s WALL (      39 calls)
     cegterg      :      3.44s CPU      3.49s WALL (      19 calls)

     Called by *egterg:
     cdiaghg      :      0.02s CPU      0.02s WALL (      73 calls)
     h_psi        :      3.10s CPU      3.14s WALL (      74 calls)
     s_psi        :      0.06s CPU      0.06s WALL (      74 calls)
     g_psi        :      0.04s CPU      0.04s WALL (      54 calls)

     Called by h_psi:
     h_psi:calbec :      0.08s CPU      0.08s WALL (      74 calls)
     vloc_psi     :      2.94s CPU      2.98s WALL (      74 calls)
     add_vuspsi   :      0.07s CPU      0.07s WALL (      74 calls)

     General routines
     calbec       :      0.11s CPU      0.11s WALL (      98 calls)
     fft          :      2.70s CPU      2.74s WALL (     283 calls)
     ffts         :      0.13s CPU      0.13s WALL (      39 calls)
     fftw         :      3.08s CPU      3.11s WALL (    1544 calls)
     interpolate  :      0.29s CPU      0.29s WALL (      20 calls)


     PWSCF        :     40.81s CPU   1m 9.65s WALL


   This run was terminated on:  19: 6:26  21May2025            

=------------------------------------------------------------------------------=
   JOB DONE.
=------------------------------------------------------------------------------=
